 Entering Gaussian System, Link 0=g16
 Initial command:
 /home/garyx/gaussian/g16/l1.exe "/tmp/gaussian_scratch/Gau-835513.inp" -scrdir="/tmp/gaussian_scratch/"
 Entering Link 1 = /home/garyx/gaussian/g16/l1.exe PID=    835515.
  
 Copyright (c) 1988-2019, Gaussian, Inc.  All Rights Reserved.
  
 This is part of the Gaussian(R) 16 program.  It is based on
 the Gaussian(R) 09 system (copyright 2009, Gaussian, Inc.),
 the Gaussian(R) 03 system (copyright 2003, Gaussian, Inc.),
 the Gaussian(R) 98 system (copyright 1998, Gaussian, Inc.),
 the Gaussian(R) 94 system (copyright 1995, Gaussian, Inc.),
 the Gaussian 92(TM) system (copyright 1992, Gaussian, Inc.),
 the Gaussian 90(TM) system (copyright 1990, Gaussian, Inc.),
 the Gaussian 88(TM) system (copyright 1988, Gaussian, Inc.),
 the Gaussian 86(TM) system (copyright 1986, Carnegie Mellon
 University), and the Gaussian 82(TM) system (copyright 1983,
 Carnegie Mellon University). Gaussian is a federally registered
 trademark of Gaussian, Inc.
  
 This software contains proprietary and confidential information,
 including trade secrets, belonging to Gaussian, Inc.
  
 This software is provided under written license and may be
 used, copied, transmitted, or stored only in accord with that
 written license.
  
 The following legend is applicable only to US Government
 contracts under FAR:
  
                    RESTRICTED RIGHTS LEGEND
  
 Use, reproduction and disclosure by the US Government is
 subject to restrictions as set forth in subparagraphs (a)
 and (c) of the Commercial Computer Software - Restricted
 Rights clause in FAR 52.227-19.
  
 Gaussian, Inc.
 340 Quinnipiac St., Bldg. 40, Wallingford CT 06492
  
  
 ---------------------------------------------------------------
 Warning -- This program may not be used in any manner that
 competes with the business of Gaussian, Inc. or will provide
 assistance to any competitor of Gaussian, Inc.  The licensee
 of this program is prohibited from giving any competitor of
 Gaussian, Inc. access to this program.  By using this program,
 the user acknowledges that Gaussian, Inc. is engaged in the
 business of creating and licensing software in the field of
 computational chemistry and represents and warrants to the
 licensee that it is not a competitor of Gaussian, Inc. and that
 it will not use this program in any manner prohibited above.
 ---------------------------------------------------------------
  

 Cite this work as:
 Gaussian 16, Revision C.01,
 M. J. Frisch, G. W. Trucks, H. B. Schlegel, G. E. Scuseria, 
 M. A. Robb, J. R. Cheeseman, G. Scalmani, V. Barone, 
 G. A. Petersson, H. Nakatsuji, X. Li, M. Caricato, A. V. Marenich, 
 J. Bloino, B. G. Janesko, R. Gomperts, B. Mennucci, H. P. Hratchian, 
 J. V. Ortiz, A. F. Izmaylov, J. L. Sonnenberg, D. Williams-Young, 
 F. Ding, F. Lipparini, F. Egidi, J. Goings, B. Peng, A. Petrone, 
 T. Henderson, D. Ranasinghe, V. G. Zakrzewski, J. Gao, N. Rega, 
 G. Zheng, W. Liang, M. Hada, M. Ehara, K. Toyota, R. Fukuda, 
 J. Hasegawa, M. Ishida, T. Nakajima, Y. Honda, O. Kitao, H. Nakai, 
 T. Vreven, K. Throssell, J. A. Montgomery, Jr., J. E. Peralta, 
 F. Ogliaro, M. J. Bearpark, J. J. Heyd, E. N. Brothers, K. N. Kudin, 
 V. N. Staroverov, T. A. Keith, R. Kobayashi, J. Normand, 
 K. Raghavachari, A. P. Rendell, J. C. Burant, S. S. Iyengar, 
 J. Tomasi, M. Cossi, J. M. Millam, M. Klene, C. Adamo, R. Cammi, 
 J. W. Ochterski, R. L. Martin, K. Morokuma, O. Farkas, 
 J. B. Foresman, and D. J. Fox, Gaussian, Inc., Wallingford CT, 2019.
 
 ******************************************
 Gaussian 16:  ES64L-G16RevC.01  3-Jul-2019
                22-Aug-2025 
 ******************************************
 %mem=10GB
 %nprocs=8
 Will use up to    8 processors via shared memory.
 -----------------------------------------
 # sp b3lyp/6-311g** Force nosymm scf=(qc)
 -----------------------------------------
 1/10=4,30=1,38=1/1,3;
 2/12=2,15=1,17=6,18=5,40=1/2;
 3/5=4,6=6,7=101,11=2,25=1,30=1,71=2,74=-5,140=1/1,2,3;
 4//1;
 5/5=2,8=3,38=5,98=1/8;
 8/6=4,10=90,11=11/1;
 11/6=1,8=1,9=11,15=111,16=1,31=1/1,2,10;
 10/6=1,31=1/2;
 6/7=2,8=2,9=2,10=2,28=1/1;
 7/8=1,10=1,25=1,30=1/1,2,3,16;
 1/10=4,30=1/3;
 99//99;
 -------------------
 Title Card Required
 -------------------
 Symbolic Z-matrix:
 Charge =  0 Multiplicity = 2
 H                     0.        0.        0. 
 H                    -3.25      0.        0. 
 F                     3.15      0.        0. 
 

 GradGradGradGradGradGradGradGradGradGradGradGradGradGradGradGradGradGrad
 Berny optimization.
 Initialization pass.
 Trust Radius=3.00D-01 FncErr=1.00D-07 GrdErr=1.00D-07 EigMax=2.50D+02 EigMin=1.00D-04
 Number of steps in this run=      2 maximum allowed number of steps=      2.
 GradGradGradGradGradGradGradGradGradGradGradGradGradGradGradGradGradGrad

                          Input orientation:                          
 ---------------------------------------------------------------------
 Center     Atomic      Atomic             Coordinates (Angstroms)
 Number     Number       Type             X           Y           Z
 ---------------------------------------------------------------------
      1          1           0        0.000000    0.000000    0.000000
      2          1           0       -3.250000    0.000000    0.000000
      3          9           0        3.150000    0.000000    0.000000
 ---------------------------------------------------------------------
                    Distance matrix (angstroms):
                    1          2          3
     1  H    0.000000
     2  H    3.250000   0.000000
     3  F    3.150000   6.400000   0.000000
 Symmetry turned off by external request.
 Stoichiometry    FH2(2)
 Framework group  C*V[C*(HHF)]
 Deg. of freedom     2
 Full point group                 C*V     NOp   4
 Rotational constants (GHZ):           0.0000000          10.7820175          10.7820175
 Standard basis: 6-311G(d,p) (5D, 7F)
    30 basis functions,    48 primitive gaussians,    31 cartesian basis functions
     6 alpha electrons        5 beta electrons
       nuclear repulsion energy         2.4189140984 Hartrees.
 NAtoms=    3 NActive=    3 NUniq=    3 SFac= 1.00D+00 NAtFMM=   60 NAOKFM=F Big=F
 Integral buffers will be    131072 words long.
 Raffenetti 2 integral format.
 Two-electron integral symmetry is turned off.
 One-electron integrals computed using PRISM.
 NBasis=    30 RedAO= T EigKep=  8.90D-02  NBF=    30
 NBsUse=    30 1.00D-06 EigRej= -1.00D+00 NBFU=    30
 ExpMin= 1.03D-01 ExpMax= 1.14D+04 ExpMxC= 1.72D+03 IAcc=3 IRadAn=         5 AccDes= 0.00D+00
 Harris functional with IExCor=  402 and IRadAn=       5 diagonalized for initial guess.
 HarFok:  IExCor=  402 AccDes= 0.00D+00 IRadAn=         5 IDoV= 1 UseB2=F ITyADJ=14
 ICtDFT=  3500011 ScaDFX=  1.000000  1.000000  1.000000  1.000000
 FoFCou: FMM=F IPFlag=           0 FMFlag=      100000 FMFlg1=           0
         NFxFlg=           0 DoJE=T BraDBF=F KetDBF=T FulRan=T
         wScrn=  0.000000 ICntrl=       500 IOpCl=  0 I1Cent=   200000004 NGrid=           0
         NMat0=    1 NMatS0=      1 NMatT0=    0 NMatD0=    1 NMtDS0=    0 NMtDT0=    0
 Symmetry not used in FoFCou.
 Initial guess <Sx>= 0.0000 <Sy>= 0.0000 <Sz>= 0.5000 <S**2>= 0.7500 S= 0.5000
 Keep R1 and R2 ints in memory in canonical form, NReq=7127049.
 Gradient too large for Newton-Raphson -- use scaled steepest descent instead.
  Beta Gap=    -0.516 HL deriv= 1.00D-14 Rot set to   6.92D-01
     Minimum is close to point  3 DX=  2.77D-02 DF= -7.59D-04 DXR=  6.47D-02 DFR=  5.17D-03 which will be used.
 Gradient too large for Newton-Raphson -- use scaled steepest descent instead.
 Gradient too large for Newton-Raphson -- use scaled steepest descent instead.
     Accept linear search using points  1 and  2.
 Gradient too large for Newton-Raphson -- use scaled steepest descent instead.
     Accept linear search using points  1 and  2.
 Gradient too large for Newton-Raphson -- use scaled steepest descent instead.
     Accept linear search using points  1 and  2.
 Gradient too large for Newton-Raphson -- use scaled steepest descent instead.
     Accept linear search using points  1 and  2.
 Gradient too large for Newton-Raphson -- use scaled steepest descent instead.
     Accept linear search using points  1 and  2.
 Gradient too large for Newton-Raphson -- use scaled steepest descent instead.
     Accept linear search using points  5 and  6.
 Gradient too large for Newton-Raphson -- use scaled steepest descent instead.
     Minimum is close to point  2 DX=  2.79D-02 DF= -2.78D-05 DXR=  3.84D-02 DFR=  1.47D-03 which will be used.
 Gradient too large for Newton-Raphson -- use scaled steepest descent instead.
     Accept linear search using points  1 and  2.
 Gradient too large for Newton-Raphson -- use scaled steepest descent instead.
     Minimum is close to point  2 DX=  4.47D-02 DF= -1.75D-06 DXR=  6.00D-02 DFR=  3.61D-03 which will be used.
 Gradient too large for Newton-Raphson -- use scaled steepest descent instead.
 Gradient too large for Newton-Raphson -- use scaled steepest descent instead.
     Accept linear search using points  1 and  2.
 LinEq1:  Iter=  0 NonCon=     1 RMS=1.32D-03 Max=2.05D-02 NDo=     1
 AX will form     1 AO Fock derivatives at one time.
 LinEq1:  Iter=  1 NonCon=     1 RMS=2.89D-04 Max=3.36D-03 NDo=     1
 LinEq1:  Iter=  2 NonCon=     1 RMS=2.16D-04 Max=2.23D-03 NDo=     1
 LinEq1:  Iter=  3 NonCon=     1 RMS=6.34D-05 Max=6.91D-04 NDo=     1
 LinEq1:  Iter=  4 NonCon=     1 RMS=6.92D-06 Max=7.41D-05 NDo=     1
 LinEq1:  Iter=  5 NonCon=     1 RMS=4.35D-07 Max=3.11D-06 NDo=     1
 LinEq1:  Iter=  6 NonCon=     1 RMS=9.41D-08 Max=1.07D-06 NDo=     1
 LinEq1:  Iter=  7 NonCon=     1 RMS=8.95D-09 Max=7.20D-08 NDo=     1
 LinEq1:  Iter=  8 NonCon=     1 RMS=2.73D-09 Max=3.85D-08 NDo=     1
 LinEq1:  Iter=  9 NonCon=     0 RMS=1.05D-09 Max=6.51D-09 NDo=     1
 Linear equations converged to 1.640D-09 1.640D-08 after     9 iterations.
 Incorrect curvature in search direction -- initial direction reversed.
 Gradient too large for Newton-Raphson -- use scaled steepest descent instead.
 LinEq1:  Iter=  0 NonCon=     1 RMS=4.42D-04 Max=4.44D-03 NDo=     1
 LinEq1:  Iter=  1 NonCon=     1 RMS=6.10D-04 Max=7.31D-03 NDo=     1
 LinEq1:  Iter=  2 NonCon=     1 RMS=3.13D-04 Max=3.91D-03 NDo=     1
 LinEq1:  Iter=  3 NonCon=     1 RMS=1.95D-05 Max=2.10D-04 NDo=     1
 LinEq1:  Iter=  4 NonCon=     1 RMS=1.92D-06 Max=1.80D-05 NDo=     1
 LinEq1:  Iter=  5 NonCon=     1 RMS=1.54D-07 Max=1.08D-06 NDo=     1
 LinEq1:  Iter=  6 NonCon=     1 RMS=3.46D-08 Max=3.75D-07 NDo=     1
 LinEq1:  Iter=  7 NonCon=     1 RMS=6.00D-09 Max=4.90D-08 NDo=     1
 LinEq1:  Iter=  8 NonCon=     1 RMS=2.37D-09 Max=3.24D-08 NDo=     1
 LinEq1:  Iter=  9 NonCon=     0 RMS=5.73D-10 Max=2.59D-09 NDo=     1
 Linear equations converged to 1.640D-09 1.640D-08 after     9 iterations.
 Gradient too large for Newton-Raphson -- use scaled steepest descent instead.
     Accept linear search using points  1 and  2.
     Minimum is close to point  2 DX= -5.81D-02 DF= -2.00D-07 DXR=  7.83D-02 DFR=  3.84D-03 which will be used.
 LinEq1:  Iter=  0 NonCon=     1 RMS=5.69D-04 Max=8.28D-03 NDo=     1
 LinEq1:  Iter=  1 NonCon=     1 RMS=3.26D-04 Max=4.58D-03 NDo=     1
 LinEq1:  Iter=  2 NonCon=     1 RMS=1.31D-04 Max=1.09D-03 NDo=     1
 LinEq1:  Iter=  3 NonCon=     1 RMS=1.08D-05 Max=9.72D-05 NDo=     1
 LinEq1:  Iter=  4 NonCon=     1 RMS=1.57D-06 Max=1.56D-05 NDo=     1
 LinEq1:  Iter=  5 NonCon=     1 RMS=1.08D-07 Max=8.24D-07 NDo=     1
 LinEq1:  Iter=  6 NonCon=     1 RMS=1.21D-08 Max=1.16D-07 NDo=     1
 LinEq1:  Iter=  7 NonCon=     1 RMS=3.49D-09 Max=2.98D-08 NDo=     1
 LinEq1:  Iter=  8 NonCon=     1 RMS=1.25D-09 Max=1.81D-08 NDo=     1
 LinEq1:  Iter=  9 NonCon=     0 RMS=2.86D-10 Max=1.83D-09 NDo=     1
 Linear equations converged to 1.640D-09 1.640D-08 after     9 iterations.
 LinEq1:  Iter=  0 NonCon=     1 RMS=2.90D-04 Max=3.37D-03 NDo=     1
 LinEq1:  Iter=  1 NonCon=     1 RMS=1.87D-04 Max=2.21D-03 NDo=     1
 LinEq1:  Iter=  2 NonCon=     1 RMS=1.41D-04 Max=1.46D-03 NDo=     1
 LinEq1:  Iter=  3 NonCon=     1 RMS=1.53D-05 Max=1.59D-04 NDo=     1
 LinEq1:  Iter=  4 NonCon=     1 RMS=1.57D-06 Max=1.71D-05 NDo=     1
 LinEq1:  Iter=  5 NonCon=     1 RMS=2.01D-07 Max=1.54D-06 NDo=     1
 LinEq1:  Iter=  6 NonCon=     1 RMS=4.46D-08 Max=4.50D-07 NDo=     1
 LinEq1:  Iter=  7 NonCon=     1 RMS=9.01D-09 Max=7.63D-08 NDo=     1
 LinEq1:  Iter=  8 NonCon=     0 RMS=7.43D-10 Max=6.09D-09 NDo=     1
 Linear equations converged to 1.640D-09 1.640D-08 after     8 iterations.
     Minimum is close to point  2 DX=  8.83D-02 DF= -8.63D-07 DXR=  8.11D-02 DFR=  6.62D-03 which will be used.
 LinEq1:  Iter=  0 NonCon=     1 RMS=1.90D-04 Max=2.09D-03 NDo=     1
 LinEq1:  Iter=  1 NonCon=     1 RMS=7.79D-05 Max=7.23D-04 NDo=     1
 LinEq1:  Iter=  2 NonCon=     1 RMS=7.78D-05 Max=9.79D-04 NDo=     1
 LinEq1:  Iter=  3 NonCon=     1 RMS=1.85D-05 Max=1.56D-04 NDo=     1
 LinEq1:  Iter=  4 NonCon=     1 RMS=1.38D-06 Max=1.30D-05 NDo=     1
 LinEq1:  Iter=  5 NonCon=     1 RMS=1.96D-07 Max=2.12D-06 NDo=     1
 LinEq1:  Iter=  6 NonCon=     1 RMS=4.01D-08 Max=2.88D-07 NDo=     1
 LinEq1:  Iter=  7 NonCon=     1 RMS=4.68D-09 Max=3.50D-08 NDo=     1
 LinEq1:  Iter=  8 NonCon=     0 RMS=5.07D-10 Max=3.35D-09 NDo=     1
 Linear equations converged to 1.640D-09 1.640D-08 after     8 iterations.
     Accept linear search using points  2 and  3.
 LinEq1:  Iter=  0 NonCon=     1 RMS=2.94D-05 Max=2.92D-04 NDo=     1
 LinEq1:  Iter=  1 NonCon=     1 RMS=1.07D-05 Max=1.17D-04 NDo=     1
 LinEq1:  Iter=  2 NonCon=     1 RMS=6.77D-06 Max=5.94D-05 NDo=     1
 LinEq1:  Iter=  3 NonCon=     1 RMS=1.67D-06 Max=1.35D-05 NDo=     1
 LinEq1:  Iter=  4 NonCon=     1 RMS=1.60D-07 Max=1.03D-06 NDo=     1
 LinEq1:  Iter=  5 NonCon=     1 RMS=2.12D-08 Max=2.45D-07 NDo=     1
 LinEq1:  Iter=  6 NonCon=     1 RMS=3.85D-09 Max=3.67D-08 NDo=     1
 LinEq1:  Iter=  7 NonCon=     0 RMS=3.82D-10 Max=3.91D-09 NDo=     1
 Linear equations converged to 1.640D-09 1.640D-08 after     7 iterations.
     Accept linear search using points  1 and  2.
     Minimum is close to point  2 DX= -2.31D-02 DF= -3.08D-10 DXR=  2.36D-02 DFR=  5.68D-04 which will be used.
 LinEq1:  Iter=  0 NonCon=     1 RMS=1.03D-06 Max=1.23D-05 NDo=     1
 LinEq1:  Iter=  1 NonCon=     1 RMS=3.83D-07 Max=3.37D-06 NDo=     1
 LinEq1:  Iter=  2 NonCon=     1 RMS=3.03D-07 Max=3.70D-06 NDo=     1
 LinEq1:  Iter=  3 NonCon=     1 RMS=9.17D-08 Max=7.45D-07 NDo=     1
 LinEq1:  Iter=  4 NonCon=     1 RMS=6.01D-09 Max=4.35D-08 NDo=     1
 LinEq1:  Iter=  5 NonCon=     1 RMS=5.44D-10 Max=5.68D-09 NDo=     1
 LinEq1:  Iter=  6 NonCon=     0 RMS=1.32D-10 Max=1.07D-09 NDo=     1
 Linear equations converged to 3.598D-10 3.598D-09 after     6 iterations.
 LinEq1:  Iter=  0 NonCon=     1 RMS=1.38D-08 Max=1.11D-07 NDo=     1
 LinEq1:  Iter=  1 NonCon=     1 RMS=5.34D-09 Max=5.61D-08 NDo=     1
 LinEq1:  Iter=  2 NonCon=     1 RMS=2.43D-09 Max=2.22D-08 NDo=     1
 LinEq1:  Iter=  3 NonCon=     1 RMS=1.26D-09 Max=1.62D-08 NDo=     1
 LinEq1:  Iter=  4 NonCon=     1 RMS=5.18D-10 Max=4.48D-09 NDo=     1
 LinEq1:  Iter=  5 NonCon=     1 RMS=6.12D-11 Max=4.85D-10 NDo=     1
 LinEq1:  Iter=  6 NonCon=     0 RMS=4.10D-12 Max=2.80D-11 NDo=     1
 Linear equations converged to 7.043D-12 7.043D-11 after     6 iterations.
 SCF Done:  E(UB3LYP) =  -100.760526798     a.u. after   24 cycles
            Convg  =    0.4419D-07                   120 Fock formations.
              S**2 =  1.7075                  -V/T =  2.0015
 <Sx>= 0.0000 <Sy>= 0.0000 <Sz>= 0.5000 <S**2>= 1.7075 S= 0.8991
 <L.S>=  0.00000000000    
 Annihilation of the first spin contaminant:
 S**2 before annihilation     1.7075,   after     0.7528
 DoSCS=F DFT=T ScalE2(SS,OS)=  1.000000  1.000000
 Range of M.O.s used for correlation:     1    30
 NBasis=    30 NAE=     6 NBE=     5 NFC=     0 NFV=     0
 NROrb=     30 NOA=     6 NOB=     5 NVA=    24 NVB=    25

 **** Warning!!: The smallest beta delta epsilon is  0.83526044D-01

 Symmetrizing basis deriv contribution to polar:
 IMax=3 JMax=2 DiffMx= 0.00D+00
 G2DrvN: will do     4 centers at a time, making    1 passes.
 Calling FoFCou, ICntrl=  3107 FMM=F I1Cent=   0 AccDes= 0.00D+00.
 End of G2Drv F.D. properties file   721 does not exist.
 End of G2Drv F.D. properties file   722 does not exist.
 End of G2Drv F.D. properties file   788 does not exist.
          IDoAtm=111
          Differentiating once with respect to electric field.
                with respect to dipole field.
          Differentiating once with respect to nuclear coordinates.
 Keep R1 and R2 ints in memory in canonical form, NReq=7101526.
          There are    12 degrees of freedom in the 1st order CPHF.  IDoFFX=6 NUNeed=     3.
      9 vectors produced by pass  0 Test12= 2.24D-15 8.33D-09 XBig12= 1.54D+02 1.22D+01.
 AX will form     9 AO Fock derivatives at one time.
      9 vectors produced by pass  1 Test12= 2.24D-15 8.33D-09 XBig12= 2.73D+00 5.92D-01.
      9 vectors produced by pass  2 Test12= 2.24D-15 8.33D-09 XBig12= 3.58D-01 4.41D-01.
      7 vectors produced by pass  3 Test12= 2.24D-15 8.33D-09 XBig12= 1.53D-03 1.73D-02.
      6 vectors produced by pass  4 Test12= 2.24D-15 8.33D-09 XBig12= 1.09D-05 1.33D-03.
      3 vectors produced by pass  5 Test12= 2.24D-15 8.33D-09 XBig12= 4.11D-08 8.45D-05.
      1 vectors produced by pass  6 Test12= 2.24D-15 8.33D-09 XBig12= 7.73D-11 3.89D-06.
      1 vectors produced by pass  7 Test12= 2.24D-15 8.33D-09 XBig12= 2.47D-13 1.94D-07.
 InvSVY:  IOpt=1 It=  1 EMax= 8.31D-16
 Solved reduced A of dimension    45 with     9 vectors.
 Isotropic polarizability for W=    0.000000       11.91 Bohr**3.
 End of Minotr F.D. properties file   721 does not exist.
 End of Minotr F.D. properties file   722 does not exist.
 End of Minotr F.D. properties file   788 does not exist.

 **********************************************************************

            Population analysis using the SCF Density.

 **********************************************************************

 Alpha  occ. eigenvalues --  -24.74584  -1.20607  -0.53705  -0.45093  -0.45093
 Alpha  occ. eigenvalues --   -0.32529
 Alpha virt. eigenvalues --   -0.08120   0.24399   0.35950   0.88873   0.91974
 Alpha virt. eigenvalues --    0.91974   1.03118   1.24989   1.24989   1.25358
 Alpha virt. eigenvalues --    1.43816   1.43816   1.43991   2.15245   2.40076
 Alpha virt. eigenvalues --    3.66603   3.68718   3.68718   3.75572   3.75573
 Alpha virt. eigenvalues --    5.88353   5.95000   5.95000  66.48471
  Beta  occ. eigenvalues --  -24.71523  -1.11825  -0.42027  -0.42027  -0.33409
  Beta virt. eigenvalues --   -0.25056  -0.07005   0.24261   0.37429   0.93446
  Beta virt. eigenvalues --    0.93446   0.97746   1.06973   1.23967   1.23967
  Beta virt. eigenvalues --    1.24375   1.45283   1.45511   1.45511   2.15639
  Beta virt. eigenvalues --    2.40683   3.77157   3.77157   3.78242   3.78242
  Beta virt. eigenvalues --    3.80191   5.97595   5.97595   6.02065  66.51516
          Condensed to atoms (all electrons):
               1          2          3
     1  H    0.966387   0.002898   0.004353
     2  H    0.002898   0.996434  -0.000000
     3  F    0.004353  -0.000000   9.022678
          Atomic-Atomic Spin Densities.
               1          2          3
     1  H   -0.964493   0.000426  -0.002350
     2  H    0.000426   0.995686  -0.000000
     3  F   -0.002350  -0.000000   0.972657
 Mulliken charges and spin densities:
               1          2
     1  H    0.026363  -0.966418
     2  H    0.000668   0.996111
     3  F   -0.027031   0.970307
 Sum of Mulliken charges =  -0.00000   1.00000
 Mulliken charges and spin densities with hydrogens summed into heavy atoms:
               1          2
     3  F   -0.000000   1.000000
 APT charges:
               1
     1  H   -0.038375
     2  H   -0.000266
     3  F    0.038641
 Sum of APT charges =  -0.00000
 APT charges with hydrogens summed into heavy atoms:
               1
     3  F   -0.000000
 Electronic spatial extent (au):  <R**2>=            373.8770
 Charge=             -0.0000 electrons
 Dipole moment (field-independent basis, Debye):
    X=             -0.4479    Y=              0.0000    Z=              0.0000  Tot=              0.4479
 Quadrupole moment (field-independent basis, Debye-Ang):
   XX=             -7.9657   YY=             -7.6199   ZZ=             -7.6199
   XY=             -0.0000   XZ=             -0.0000   YZ=             -0.0000
 Traceless Quadrupole moment (field-independent basis, Debye-Ang):
   XX=             -0.2305   YY=              0.1153   ZZ=              0.1153
   XY=             -0.0000   XZ=             -0.0000   YZ=             -0.0000
 Octapole moment (field-independent basis, Debye-Ang**2):
  XXX=            -28.8458  YYY=             -0.0000  ZZZ=             -0.0000  XYY=            -10.8066
  XXY=             -0.0000  XXZ=             -0.0000  XZZ=            -10.8066  YZZ=             -0.0000
  YYZ=             -0.0000  XYZ=             -0.0000
 Hexadecapole moment (field-independent basis, Debye-Ang**3):
 XXXX=           -343.7037 YYYY=             -6.3311 ZZZZ=             -6.3311 XXXY=             -0.0000
 XXXZ=             -0.0000 YYYX=             -0.0000 YYYZ=             -0.0000 ZZZX=             -0.0000
 ZZZY=             -0.0000 XXYY=            -64.9748 XXZZ=            -64.9748 YYZZ=             -2.1104
 XXYZ=             -0.0000 YYXZ=             -0.0000 ZZXY=             -0.0000
 N-N= 2.418914098405D+00 E-N=-2.458549740936D+02  KE= 1.006072488137D+02
  Exact polarizability:      31.688      -0.000       2.026      -0.000      -0.000       2.026
 Approx polarizability:      29.360      -0.000       1.928      -0.000       0.000       1.928
                          Isotropic Fermi Contact Couplings
        Atom                 a.u.       MegaHertz       Gauss      10(-4) cm-1
     1  H(1)              -0.28862   -1290.08928    -460.33593    -430.32746
     2  H(1)               0.29589    1322.60307     471.93766     441.17290
     3  F(19)              0.02868     120.65621      43.05314      40.24658
 --------------------------------------------------------
       Center         ----  Spin Dipole Couplings  ----
                      3XX-RR        3YY-RR        3ZZ-RR
 --------------------------------------------------------
     1   Atom        0.018557     -0.009278     -0.009278
     2   Atom       -0.007124      0.003562      0.003562
     3   Atom        6.113350     -3.056675     -3.056675
 --------------------------------------------------------
                        XY            XZ            YZ
 --------------------------------------------------------
     1   Atom        0.000000      0.000000      0.000000
     2   Atom        0.000000      0.000000      0.000000
     3   Atom       -0.000001     -0.000000     -0.000000
 --------------------------------------------------------


 ---------------------------------------------------------------------------------
              Anisotropic Spin Dipole Couplings in Principal Axis System
 ---------------------------------------------------------------------------------

       Atom             a.u.   MegaHertz   Gauss  10(-4) cm-1        Axes

              Baa    -0.0093    -4.951    -1.766    -1.651 -0.0000 -0.3156  0.9489
     1 H(1)   Bbb    -0.0093    -4.951    -1.766    -1.651 -0.0000  0.9489  0.3156
              Bcc     0.0186     9.901     3.533     3.303  1.0000  0.0000  0.0000
 
              Baa    -0.0071    -3.801    -1.356    -1.268  1.0000 -0.0000 -0.0000
     2 H(1)   Bbb     0.0036     1.901     0.678     0.634  0.0000 -0.3278  0.9448
              Bcc     0.0036     1.901     0.678     0.634  0.0000  0.9448  0.3278
 
              Baa    -3.0567 -1535.140  -547.776  -512.068  0.0000  0.9441  0.3297
     3 F(19)  Bbb    -3.0567 -1535.140  -547.776  -512.068  0.0000 -0.3297  0.9441
              Bcc     6.1134  3070.281  1095.553  1024.135  1.0000 -0.0000 -0.0000
 

 ---------------------------------------------------------------------------------

 Calling FoFJK, ICntrl=    100127 FMM=F ISym2X=0 I1Cent= 0 IOpClX= 1 NMat=1 NMatS=1 NMatT=0.
 Full mass-weighted force constant matrix:
 Low frequencies --- -353.1570 -144.1074   -0.0014   -0.0013    0.0018   52.2507
 Low frequencies ---   52.2507  126.8192  126.8193
 ******    2 imaginary frequencies (negative Signs) ****** 
 Diagonal vibrational polarizability:
        9.2704015       1.0807846       1.0807847
 Harmonic frequencies (cm**-1), IR intensities (KM/Mole), Raman scattering
 activities (A**4/AMU), depolarization ratios for plane and unpolarized
 incident light, reduced masses (AMU), force constants (mDyne/A),
 and normal coordinates:
                      1                      2                      3
                      A                      A                      A
 Frequencies --   -353.1570              -144.1074               125.0782
 Red. masses --      1.0313                 1.0814                 1.0183
 Frc consts  --      0.0758                 0.0132                 0.0094
 IR Inten    --     27.3598                 2.5982                 0.6283
  Atom  AN      X      Y      Z        X      Y      Z        X      Y      Z
     1   1     0.96  -0.00  -0.00     0.24  -0.00  -0.00     0.00  -0.33   0.83
     2   1    -0.28   0.00   0.00     0.97   0.00   0.00     0.00   0.16  -0.41
     3   9    -0.04   0.00   0.00    -0.06   0.00   0.00    -0.00   0.01  -0.02
                      4
                      A
 Frequencies --    125.0783
 Red. masses --      1.0183
 Frc consts  --      0.0094
 IR Inten    --      0.6283
  Atom  AN      X      Y      Z
     1   1     0.00   0.83   0.33
     2   1     0.00  -0.41  -0.16
     3   9    -0.00  -0.02  -0.01

 -------------------
 - Thermochemistry -
 -------------------
 Temperature   298.150 Kelvin.  Pressure   1.00000 Atm.
 Atom     1 has atomic number  1 and mass   1.00783
 Atom     2 has atomic number  1 and mass   1.00783
 Atom     3 has atomic number  9 and mass  18.99840
 Molecular mass:    21.01405 amu.
 Principal axes and moments of inertia in atomic units:
                           1         2         3
     Eigenvalues --     0.00000 167.38437 167.38437
           X            1.00000  -0.00000   0.00000
           Y            0.00000   1.00000   0.00000
           Z            0.00000   0.00000   1.00000
 This molecule is a prolate symmetric top.
 Rotational symmetry number  1.
 Rotational temperature (Kelvin)      0.51746
 Rotational constant (GHZ):          10.782017
    2 imaginary frequencies ignored.
 Zero-point vibrational energy       1496.3 (Joules/Mol)
                                    0.35762 (Kcal/Mol)
 Warning -- explicit consideration of   2 degrees of freedom as
           vibrations may cause significant error
 Vibrational temperatures:    179.96   179.96
          (Kelvin)
 
 Zero-point correction=                           0.000570 (Hartree/Particle)
 Thermal correction to Energy=                    0.004306
 Thermal correction to Enthalpy=                  0.005250
 Thermal correction to Gibbs Free Energy=        -0.021882
 Sum of electronic and zero-point Energies=           -100.759957
 Sum of electronic and thermal Energies=              -100.756221
 Sum of electronic and thermal Enthalpies=            -100.755277
 Sum of electronic and thermal Free Energies=         -100.782409
 
                     E (Thermal)             CV                S
                      KCal/Mol        Cal/Mol-Kelvin    Cal/Mol-Kelvin
 Total                    2.702              8.824             57.105
 Electronic               0.000              0.000              1.377
 Translational            0.889              2.981             35.068
 Rotational               0.592              1.987             14.619
 Vibrational              1.221              3.856              6.041
 Vibration     1          0.610              1.928              3.020
 Vibration     2          0.610              1.928              3.020
                       Q            Log10(Q)             Ln(Q)
 Total Bot       0.116194D+11         10.065184         23.175944
 Total V=0       0.212481D+11         10.327319         23.779531
 Vib (Bot)       0.266302D+01          0.425374          0.979459
 Vib (Bot)    1  0.163188D+01          0.212687          0.489730
 Vib (Bot)    2  0.163187D+01          0.212687          0.489730
 Vib (V=0)       0.486977D+01          0.687509          1.583047
 Vib (V=0)    1  0.220676D+01          0.343754          0.791524
 Vib (V=0)    2  0.220676D+01          0.343754          0.791524
 Electronic      0.200000D+01          0.301030          0.693147
 Translational   0.378633D+07          6.578219         15.146908
 Rotational      0.576185D+03          2.760562          6.356429
 -------------------------------------------------------------------
 Center     Atomic                   Forces (Hartrees/Bohr)
 Number     Number              X              Y              Z
 -------------------------------------------------------------------
      1        1           0.001639521    0.000000000    0.000000000
      2        1           0.000845305    0.000000000    0.000000000
      3        9          -0.002484826   -0.000000000   -0.000000000
 -------------------------------------------------------------------
 Cartesian Forces:  Max     0.002484826 RMS     0.001031554

 GradGradGradGradGradGradGradGradGradGradGradGradGradGradGradGradGradGrad
 Berny optimization.
 Search for a local minimum.
 Step number   1 out of a maximum of    2
 All quantities printed in internal units (Hartrees-Bohrs-Radians)
 Second derivative matrix not updated -- analytic derivatives used.
 The second derivative matrix:
                          X1        Y1        Z1        X2        Y2
           X1          -0.00432
           Y1           0.00000   0.00056
           Z1           0.00000   0.00000   0.00056
           X2           0.00107  -0.00000   0.00000  -0.00106
           Y2           0.00000  -0.00014   0.00000  -0.00000   0.00014
           Z2           0.00000   0.00000  -0.00014  -0.00000   0.00000
           X3           0.00325  -0.00000  -0.00000  -0.00002  -0.00000
           Y3          -0.00000  -0.00042  -0.00000   0.00000   0.00000
           Z3          -0.00000  -0.00000  -0.00042  -0.00000  -0.00000
                          Z2        X3        Y3        Z3
           Z2           0.00014
           X3          -0.00000  -0.00323
           Y3          -0.00000   0.00000   0.00042
           Z3           0.00000   0.00000   0.00000   0.00042
 ITU=  0
     Eigenvalues ---   -0.00618  -0.00125   0.00069   0.00069
 Eigenvalue     1 is  -6.18D-03 should be greater than     0.000000 Eigenvector:
                          X1        X3        X2        Y1        Z1
   1                    0.95268  -0.29862  -0.05683  -0.00000  -0.00000
                          Y2        Z2        Y3        Z3
   1                    0.00000   0.00000   0.00000   0.00000
 Eigenvalue     2 is  -1.25D-03 should be greater than     0.000000 Eigenvector:
                          X2        X3        X1        Z1        Y1
   1                    0.95177  -0.30438  -0.03863  -0.00000  -0.00000
                          Z2        Y2        Z3        Y3
   1                    0.00000   0.00000   0.00000   0.00000
 Quadratic step=1.250D+00 exceeds max=3.000D-01 adjusted using Lamda=-5.334D-03.
 Angle between NR and scaled steps=  23.77 degrees.
 Angle between quadratic step and forces=  32.60 degrees.
 Linear search not attempted -- first point.
 B after Tr=    -0.085141   -0.000000    0.000000
         Rot=    0.925202    0.379475    0.000000    0.000000 Ang=  44.60 deg.
 Variable       Old X    -DE/DX   Delta X   Delta X   Delta X     New X
                                 (Linear)    (Quad)   (Total)
    X1        0.00000   0.00164   0.00000   0.17788   0.09274   0.09274
    Y1        0.00000   0.00000   0.00000   0.00000   0.00000   0.00000
    Z1        0.00000   0.00000   0.00000   0.00000  -0.00000  -0.00000
    X2       -6.14161   0.00085   0.00000   0.20525   0.12011  -6.02150
    Y2        0.00000   0.00000   0.00000  -0.00000  -0.00000  -0.00000
    Z2        0.00000   0.00000   0.00000  -0.00000   0.00000   0.00000
    X3        5.95264  -0.00248   0.00000  -0.12771  -0.21285   5.73979
    Y3        0.00000  -0.00000   0.00000  -0.00000  -0.00000  -0.00000
    Z3        0.00000  -0.00000   0.00000  -0.00000   0.00000   0.00000
         Item               Value     Threshold  Converged?
 Maximum Force            0.002485     0.000450     NO 
 RMS     Force            0.001032     0.000300     NO 
 Maximum Displacement     0.212852     0.001800     NO 
 RMS     Displacement     0.087135     0.001200     NO 
 Predicted change in Energy=-9.334749D-04
 GradGradGradGradGradGradGradGradGradGradGradGradGradGradGradGradGradGrad


 ----------------------------------------------------------------------

 Electric dipole moment (input orientation):
 (Debye = 10**-18 statcoulomb cm , SI units = C m)
                  (au)            (Debye)         (10**-30 SI)
   Tot        0.176228D+00      0.447926D+00      0.149412D+01
   x         -0.176228D+00     -0.447926D+00     -0.149412D+01
   y          0.000000D+00      0.000000D+00      0.000000D+00
   z          0.000000D+00      0.000000D+00      0.000000D+00

 Dipole polarizability, Alpha (input orientation).
 (esu units = cm**3 , SI units = C**2 m**2 J**-1)
 Alpha(0;0):
               (au)            (10**-24 esu)      (10**-40 SI)
   iso        0.119135D+02      0.176539D+01      0.196426D+01
   aniso      0.296612D+02      0.439534D+01      0.489048D+01
   xx         0.316876D+02      0.469562D+01      0.522458D+01
   yx         0.000000D+00      0.000000D+00      0.000000D+00
   yy         0.202639D+01      0.300280D+00      0.334107D+00
   zx         0.000000D+00      0.000000D+00      0.000000D+00
   zy         0.000000D+00      0.000000D+00      0.000000D+00
   zz         0.202639D+01      0.300280D+00      0.334107D+00

 ----------------------------------------------------------------------

 Dipole orientation:
     1          0.00000000          0.00000000          0.00000000
     1         -0.00000001         -0.00000004          6.14160990
     9          0.00000001          0.00000004         -5.95263729

 Electric dipole moment (dipole orientation):
 (Debye = 10**-18 statcoulomb cm , SI units = C m)
                  (au)            (Debye)         (10**-30 SI)
   Tot        0.176228D+00      0.447926D+00      0.149412D+01
   x          0.000000D+00      0.000000D+00      0.000000D+00
   y          0.000000D+00      0.000000D+00      0.000000D+00
   z          0.176228D+00      0.447926D+00      0.149412D+01

 Dipole polarizability, Alpha (dipole orientation).
 (esu units = cm**3 , SI units = C**2 m**2 J**-1)
 Alpha(0;0):
               (au)            (10**-24 esu)      (10**-40 SI)
   iso        0.119135D+02      0.176539D+01      0.196426D+01
   aniso      0.296612D+02      0.439534D+01      0.489048D+01
   xx         0.202639D+01      0.300280D+00      0.334107D+00
   yx         0.000000D+00      0.000000D+00      0.000000D+00
   yy         0.202639D+01      0.300280D+00      0.334107D+00
   zx         0.000000D+00      0.000000D+00      0.000000D+00
   zy         0.000000D+00      0.000000D+00      0.000000D+00
   zz         0.316876D+02      0.469562D+01      0.522458D+01

 ----------------------------------------------------------------------
 Unable to Open any file for archive entry.
 1\1\GINC-DESKTOP-B3RIHJD\Freq\UB3LYP\6-311G(d,p)\F1H2(2)\GARYX\22-Aug-
 2025\0\\# sp b3lyp/6-311g** Force nosymm scf=(qc)\\Title Card Required
 \\0,2\H,0.,0.,0.\H,-3.25,0.,0.\F,3.15,0.,0.\\Version=ES64L-G16RevC.01\
 HF=-100.7605268\S2=1.707492\S2-1=0.\S2A=0.752755\RMSD=2.694e-09\RMSF=1
 .032e-03\Thermal=0.0043058\ETot=-100.756221\HTot=-100.7552768\GTot=-10
 0.7824092\Dipole=-0.1762277,0.,0.\DipoleDeriv=-0.1713711,0.,0.,0.,0.02
 81232,0.,0.,0.,0.0281232,-0.0021698,0.,0.,0.,0.0006859,0.,0.,0.,0.0006
 859,0.1735409,0.,0.,0.,-0.0288092,0.,0.,0.,-0.0288092\Polar=31.6876148
 ,0.,2.0263896,0.,0.,2.0263896\Quadrupole=-0.1713902,0.0856951,0.085695
 1,0.,0.,0.\PG=C*V [C*(H1H1F1)]\NImag=2\\-0.00432247,0.,0.00055786,0.,0
 .,0.00055786,0.00107439,0.,0.,-0.00105507,0.,-0.00013744,0.,0.,0.00013
 737,0.,0.,-0.00013744,0.,0.,0.00013737,0.00324808,0.,0.,-0.00001932,0.
 ,0.,-0.00322876,0.,-0.00042043,0.,0.,0.00000006,0.,0.,0.00042036,0.,0.
 ,-0.00042043,0.,0.,0.00000006,0.,0.,0.00042036\\-0.00163952,0.,0.,-0.0
 0084531,0.,0.,0.00248483,0.,0.\\\@
 The archive entry for this job was punched.


 TERRY FORSTER, PORTLY ATLANTA BRAVES RELIEVER,
 ANNOUNCING THAT HE WAS GOING TO A FAT FARM:
 "A WAIST IS A TERRIBLE THING TO MIND."
 Job cpu time:       0 days  0 hours  0 minutes 25.5 seconds.
 Elapsed time:       0 days  0 hours  0 minutes  3.5 seconds.
 File lengths (MBytes):  RWF=      6 Int=      0 D2E=      0 Chk=      1 Scr=      1
 Normal termination of Gaussian 16 at Fri Aug 22 20:11:30 2025.
