 Entering Gaussian System, Link 0=g16
 Initial command:
 /home/garyx/gaussian/g16/l1.exe "/tmp/gaussian_scratch/Gau-173238.inp" -scrdir="/tmp/gaussian_scratch/"
 Entering Link 1 = /home/garyx/gaussian/g16/l1.exe PID=    173240.
  
 Copyright (c) 1988-2019, Gaussian, Inc.  All Rights Reserved.
  
 This is part of the Gaussian(R) 16 program.  It is based on
 the Gaussian(R) 09 system (copyright 2009, Gaussian, Inc.),
 the Gaussian(R) 03 system (copyright 2003, Gaussian, Inc.),
 the Gaussian(R) 98 system (copyright 1998, Gaussian, Inc.),
 the Gaussian(R) 94 system (copyright 1995, Gaussian, Inc.),
 the Gaussian 92(TM) system (copyright 1992, Gaussian, Inc.),
 the Gaussian 90(TM) system (copyright 1990, Gaussian, Inc.),
 the Gaussian 88(TM) system (copyright 1988, Gaussian, Inc.),
 the Gaussian 86(TM) system (copyright 1986, Carnegie Mellon
 University), and the Gaussian 82(TM) system (copyright 1983,
 Carnegie Mellon University). Gaussian is a federally registered
 trademark of Gaussian, Inc.
  
 This software contains proprietary and confidential information,
 including trade secrets, belonging to Gaussian, Inc.
  
 This software is provided under written license and may be
 used, copied, transmitted, or stored only in accord with that
 written license.
  
 The following legend is applicable only to US Government
 contracts under FAR:
  
                    RESTRICTED RIGHTS LEGEND
  
 Use, reproduction and disclosure by the US Government is
 subject to restrictions as set forth in subparagraphs (a)
 and (c) of the Commercial Computer Software - Restricted
 Rights clause in FAR 52.227-19.
  
 Gaussian, Inc.
 340 Quinnipiac St., Bldg. 40, Wallingford CT 06492
  
  
 ---------------------------------------------------------------
 Warning -- This program may not be used in any manner that
 competes with the business of Gaussian, Inc. or will provide
 assistance to any competitor of Gaussian, Inc.  The licensee
 of this program is prohibited from giving any competitor of
 Gaussian, Inc. access to this program.  By using this program,
 the user acknowledges that Gaussian, Inc. is engaged in the
 business of creating and licensing software in the field of
 computational chemistry and represents and warrants to the
 licensee that it is not a competitor of Gaussian, Inc. and that
 it will not use this program in any manner prohibited above.
 ---------------------------------------------------------------
  

 Cite this work as:
 Gaussian 16, Revision C.01,
 M. J. Frisch, G. W. Trucks, H. B. Schlegel, G. E. Scuseria, 
 M. A. Robb, J. R. Cheeseman, G. Scalmani, V. Barone, 
 G. A. Petersson, H. Nakatsuji, X. Li, M. Caricato, A. V. Marenich, 
 J. Bloino, B. G. Janesko, R. Gomperts, B. Mennucci, H. P. Hratchian, 
 J. V. Ortiz, A. F. Izmaylov, J. L. Sonnenberg, D. Williams-Young, 
 F. Ding, F. Lipparini, F. Egidi, J. Goings, B. Peng, A. Petrone, 
 T. Henderson, D. Ranasinghe, V. G. Zakrzewski, J. Gao, N. Rega, 
 G. Zheng, W. Liang, M. Hada, M. Ehara, K. Toyota, R. Fukuda, 
 J. Hasegawa, M. Ishida, T. Nakajima, Y. Honda, O. Kitao, H. Nakai, 
 T. Vreven, K. Throssell, J. A. Montgomery, Jr., J. E. Peralta, 
 F. Ogliaro, M. J. Bearpark, J. J. Heyd, E. N. Brothers, K. N. Kudin, 
 V. N. Staroverov, T. A. Keith, R. Kobayashi, J. Normand, 
 K. Raghavachari, A. P. Rendell, J. C. Burant, S. S. Iyengar, 
 J. Tomasi, M. Cossi, J. M. Millam, M. Klene, C. Adamo, R. Cammi, 
 J. W. Ochterski, R. L. Martin, K. Morokuma, O. Farkas, 
 J. B. Foresman, and D. J. Fox, Gaussian, Inc., Wallingford CT, 2019.
 
 ******************************************
 Gaussian 16:  ES64L-G16RevC.01  3-Jul-2019
                22-Aug-2025 
 ******************************************
 %mem=10GB
 %nprocs=8
 Will use up to    8 processors via shared memory.
 -----------------------------------------
 # sp b3lyp/6-311g** Force nosymm scf=(qc)
 -----------------------------------------
 1/10=4,30=1,38=1/1,3;
 2/12=2,15=1,17=6,18=5,40=1/2;
 3/5=4,6=6,7=101,11=2,25=1,30=1,71=2,74=-5,140=1/1,2,3;
 4//1;
 5/5=2,8=3,38=5,98=1/8;
 8/6=4,10=90,11=11/1;
 11/6=1,8=1,9=11,15=111,16=1,31=1/1,2,10;
 10/6=1,31=1/2;
 6/7=2,8=2,9=2,10=2,28=1/1;
 7/8=1,10=1,25=1,30=1/1,2,3,16;
 1/10=4,30=1/3;
 99//99;
 -------------------
 Title Card Required
 -------------------
 Symbolic Z-matrix:
 Charge =  0 Multiplicity = 2
 H                     0.        0.        0. 
 H                    -0.85      0.        0. 
 F                     0.95      0.        0. 
 

 GradGradGradGradGradGradGradGradGradGradGradGradGradGradGradGradGradGrad
 Berny optimization.
 Initialization pass.
 Trust Radius=3.00D-01 FncErr=1.00D-07 GrdErr=1.00D-07 EigMax=2.50D+02 EigMin=1.00D-04
 Number of steps in this run=      2 maximum allowed number of steps=      2.
 GradGradGradGradGradGradGradGradGradGradGradGradGradGradGradGradGradGrad

                          Input orientation:                          
 ---------------------------------------------------------------------
 Center     Atomic      Atomic             Coordinates (Angstroms)
 Number     Number       Type             X           Y           Z
 ---------------------------------------------------------------------
      1          1           0        0.000000    0.000000    0.000000
      2          1           0       -0.850000    0.000000    0.000000
      3          9           0        0.950000    0.000000    0.000000
 ---------------------------------------------------------------------
                    Distance matrix (angstroms):
                    1          2          3
     1  H    0.000000
     2  H    0.850000   0.000000
     3  F    0.950000   1.800000   0.000000
 Symmetry turned off by external request.
 Stoichiometry    FH2(2)
 Framework group  C*V[C*(HHF)]
 Deg. of freedom     2
 Full point group                 C*V     NOp   4
 Rotational constants (GHZ):           0.0000000         132.6668990         132.6668990
 Standard basis: 6-311G(d,p) (5D, 7F)
    30 basis functions,    48 primitive gaussians,    31 cartesian basis functions
     6 alpha electrons        5 beta electrons
       nuclear repulsion energy         8.2817052669 Hartrees.
 NAtoms=    3 NActive=    3 NUniq=    3 SFac= 1.00D+00 NAtFMM=   60 NAOKFM=F Big=F
 Integral buffers will be    131072 words long.
 Raffenetti 2 integral format.
 Two-electron integral symmetry is turned off.
 One-electron integrals computed using PRISM.
 NBasis=    30 RedAO= T EigKep=  1.47D-02  NBF=    30
 NBsUse=    30 1.00D-06 EigRej= -1.00D+00 NBFU=    30
 ExpMin= 1.03D-01 ExpMax= 1.14D+04 ExpMxC= 1.72D+03 IAcc=3 IRadAn=         5 AccDes= 0.00D+00
 Harris functional with IExCor=  402 and IRadAn=       5 diagonalized for initial guess.
 HarFok:  IExCor=  402 AccDes= 0.00D+00 IRadAn=         5 IDoV= 1 UseB2=F ITyADJ=14
 ICtDFT=  3500011 ScaDFX=  1.000000  1.000000  1.000000  1.000000
 FoFCou: FMM=F IPFlag=           0 FMFlag=      100000 FMFlg1=           0
         NFxFlg=           0 DoJE=T BraDBF=F KetDBF=T FulRan=T
         wScrn=  0.000000 ICntrl=       500 IOpCl=  0 I1Cent=   200000004 NGrid=           0
         NMat0=    1 NMatS0=      1 NMatT0=    0 NMatD0=    1 NMtDS0=    0 NMtDT0=    0
 Symmetry not used in FoFCou.
 Initial guess <Sx>= 0.0000 <Sy>= 0.0000 <Sz>= 0.5000 <S**2>= 0.7500 S= 0.5000
 Keep R1 and R2 ints in memory in canonical form, NReq=7127055.
 Gradient too large for Newton-Raphson -- use scaled steepest descent instead.
     Accept linear search using points  2 and  3.
 Gradient too large for Newton-Raphson -- use scaled steepest descent instead.
 Gradient too large for Newton-Raphson -- use scaled steepest descent instead.
     Accept linear search using points  1 and  2.
 LinEq1:  Iter=  0 NonCon=     1 RMS=4.28D-04 Max=4.53D-03 NDo=     1
 AX will form     1 AO Fock derivatives at one time.
 LinEq1:  Iter=  1 NonCon=     1 RMS=1.39D-04 Max=9.16D-04 NDo=     1
 LinEq1:  Iter=  2 NonCon=     1 RMS=4.29D-05 Max=3.03D-04 NDo=     1
 LinEq1:  Iter=  3 NonCon=     1 RMS=9.55D-06 Max=5.85D-05 NDo=     1
 LinEq1:  Iter=  4 NonCon=     1 RMS=1.92D-06 Max=1.47D-05 NDo=     1
 LinEq1:  Iter=  5 NonCon=     1 RMS=3.65D-07 Max=2.75D-06 NDo=     1
 LinEq1:  Iter=  6 NonCon=     1 RMS=3.58D-08 Max=1.89D-07 NDo=     1
 LinEq1:  Iter=  7 NonCon=     1 RMS=2.96D-09 Max=1.58D-08 NDo=     1
 LinEq1:  Iter=  8 NonCon=     0 RMS=5.32D-10 Max=3.09D-09 NDo=     1
 Linear equations converged to 1.640D-09 1.640D-08 after     8 iterations.
     Accept linear search using points  1 and  2.
     Minimum is close to point  2 DX= -6.49D-04 DF= -2.00D-11 DXR=  6.50D-04 DFR=  4.23D-07 which will be used.
 LinEq1:  Iter=  0 NonCon=     1 RMS=1.45D-06 Max=1.28D-05 NDo=     1
 LinEq1:  Iter=  1 NonCon=     1 RMS=1.02D-06 Max=9.28D-06 NDo=     1
 LinEq1:  Iter=  2 NonCon=     1 RMS=2.46D-07 Max=2.31D-06 NDo=     1
 LinEq1:  Iter=  3 NonCon=     1 RMS=2.87D-08 Max=2.18D-07 NDo=     1
 LinEq1:  Iter=  4 NonCon=     1 RMS=5.09D-09 Max=3.88D-08 NDo=     1
 LinEq1:  Iter=  5 NonCon=     1 RMS=7.01D-10 Max=3.81D-09 NDo=     1
 LinEq1:  Iter=  6 NonCon=     0 RMS=1.52D-10 Max=8.73D-10 NDo=     1
 Linear equations converged to 2.318D-10 2.318D-09 after     6 iterations.
 SCF Done:  E(UB3LYP) =  -100.943678312     a.u. after    6 cycles
            Convg  =    0.2710D-08                    26 Fock formations.
              S**2 =  0.7532                  -V/T =  1.9991
 <Sx>= 0.0000 <Sy>= 0.0000 <Sz>= 0.5000 <S**2>= 0.7532 S= 0.5016
 <L.S>=  0.00000000000    
 Annihilation of the first spin contaminant:
 S**2 before annihilation     0.7532,   after     0.7500
 DoSCS=F DFT=T ScalE2(SS,OS)=  1.000000  1.000000
 Range of M.O.s used for correlation:     1    30
 NBasis=    30 NAE=     6 NBE=     5 NFC=     0 NFV=     0
 NROrb=     30 NOA=     6 NOB=     5 NVA=    24 NVB=    25
 Symmetrizing basis deriv contribution to polar:
 IMax=3 JMax=2 DiffMx= 0.00D+00
 G2DrvN: will do     4 centers at a time, making    1 passes.
 Calling FoFCou, ICntrl=  3107 FMM=F I1Cent=   0 AccDes= 0.00D+00.
 End of G2Drv F.D. properties file   721 does not exist.
 End of G2Drv F.D. properties file   722 does not exist.
 End of G2Drv F.D. properties file   788 does not exist.
          IDoAtm=111
          Differentiating once with respect to electric field.
                with respect to dipole field.
          Differentiating once with respect to nuclear coordinates.
 Keep R1 and R2 ints in memory in canonical form, NReq=7101511.
          There are    12 degrees of freedom in the 1st order CPHF.  IDoFFX=6 NUNeed=     3.
      9 vectors produced by pass  0 Test12= 2.24D-15 8.33D-09 XBig12= 1.63D+01 3.31D+00.
 AX will form     9 AO Fock derivatives at one time.
      9 vectors produced by pass  1 Test12= 2.24D-15 8.33D-09 XBig12= 2.48D+00 6.20D-01.
      9 vectors produced by pass  2 Test12= 2.24D-15 8.33D-09 XBig12= 1.95D-01 1.93D-01.
      9 vectors produced by pass  3 Test12= 2.24D-15 8.33D-09 XBig12= 2.43D-03 2.00D-02.
      9 vectors produced by pass  4 Test12= 2.24D-15 8.33D-09 XBig12= 6.72D-06 1.04D-03.
      5 vectors produced by pass  5 Test12= 2.24D-15 8.33D-09 XBig12= 1.43D-08 3.42D-05.
      4 vectors produced by pass  6 Test12= 2.24D-15 8.33D-09 XBig12= 1.56D-11 1.48D-06.
      1 vectors produced by pass  7 Test12= 2.24D-15 8.33D-09 XBig12= 3.53D-14 4.59D-08.
 InvSVY:  IOpt=1 It=  1 EMax= 4.44D-16
 Solved reduced A of dimension    55 with     9 vectors.
 Isotropic polarizability for W=    0.000000        6.11 Bohr**3.
 End of Minotr F.D. properties file   721 does not exist.
 End of Minotr F.D. properties file   722 does not exist.
 End of Minotr F.D. properties file   788 does not exist.

 **********************************************************************

            Population analysis using the SCF Density.

 **********************************************************************

 Alpha  occ. eigenvalues --  -24.65779  -1.20273  -0.61515  -0.40904  -0.40904
 Alpha  occ. eigenvalues --   -0.35360
 Alpha virt. eigenvalues --    0.14183   0.18359   0.54054   0.88305   0.88305
 Alpha virt. eigenvalues --    0.95895   1.08685   1.08685   1.45223   1.70156
 Alpha virt. eigenvalues --    1.70156   1.74343   2.14640   2.30811   3.41505
 Alpha virt. eigenvalues --    3.80003   3.80003   4.06100   4.06100   4.79527
 Alpha virt. eigenvalues --    6.01178   6.01178   6.89217  66.77301
  Beta  occ. eigenvalues --  -24.64642  -1.17383  -0.55265  -0.39890  -0.39890
  Beta virt. eigenvalues --   -0.17516   0.16098   0.20665   0.59661   0.90244
  Beta virt. eigenvalues --    0.90244   0.98193   1.13652   1.13652   1.47060
  Beta virt. eigenvalues --    1.74874   1.74874   1.83551   2.14534   2.41382
  Beta virt. eigenvalues --    3.47590   3.80582   3.80582   4.09085   4.09085
  Beta virt. eigenvalues --    4.84057   6.02077   6.02077   6.93524  66.78421
          Condensed to atoms (all electrons):
               1          2          3
     1  H    0.334407   0.160227   0.229248
     2  H    0.160227   0.920604  -0.066628
     3  F    0.229248  -0.066628   9.099296
          Atomic-Atomic Spin Densities.
               1          2          3
     1  H   -0.054592   0.038514  -0.001584
     2  H    0.038514   0.787170  -0.086768
     3  F   -0.001584  -0.086768   0.367098
 Mulliken charges and spin densities:
               1          2
     1  H    0.276118  -0.017662
     2  H   -0.014203   0.738916
     3  F   -0.261916   0.278746
 Sum of Mulliken charges =   0.00000   1.00000
 Mulliken charges and spin densities with hydrogens summed into heavy atoms:
               1          2
     3  F    0.000000   1.000000
 APT charges:
               1
     1  H    0.190649
     2  H    0.138508
     3  F   -0.329157
 Sum of APT charges =   0.00000
 APT charges with hydrogens summed into heavy atoms:
               1
     3  F    0.000000
 Electronic spatial extent (au):  <R**2>=             46.9978
 Charge=              0.0000 electrons
 Dipole moment (field-independent basis, Debye):
    X=             -1.6527    Y=             -0.0000    Z=             -0.0000  Tot=              1.6527
 Quadrupole moment (field-independent basis, Debye-Ang):
   XX=             -7.5561   YY=             -6.5866   ZZ=             -6.5866
   XY=              0.0000   XZ=             -0.0000   YZ=             -0.0000
 Traceless Quadrupole moment (field-independent basis, Debye-Ang):
   XX=             -0.6463   YY=              0.3232   ZZ=              0.3232
   XY=              0.0000   XZ=             -0.0000   YZ=             -0.0000
 Octapole moment (field-independent basis, Debye-Ang**2):
  XXX=            -11.9453  YYY=             -0.0000  ZZZ=             -0.0000  XYY=             -3.8431
  XXY=              0.0000  XXZ=             -0.0000  XZZ=             -3.8431  YZZ=             -0.0000
  YYZ=             -0.0000  XYZ=             -0.0000
 Hexadecapole moment (field-independent basis, Debye-Ang**3):
 XXXX=            -35.0188 YYYY=             -4.3112 ZZZZ=             -4.3112 XXXY=              0.0000
 XXXZ=             -0.0000 YYYX=              0.0000 YYYZ=             -0.0000 ZZZX=             -0.0000
 ZZZY=             -0.0000 XXYY=             -6.8182 XXZZ=             -6.8182 YYZZ=             -1.4371
 XXYZ=             -0.0000 YYXZ=             -0.0000 ZZXY=              0.0000
 N-N= 8.281705266875D+00 E-N=-2.581640001129D+02  KE= 1.010339022881D+02
  Exact polarizability:      13.185       0.000       2.567      -0.000       0.000       2.567
 Approx polarizability:      15.283       0.000       2.614       0.000       0.000       2.614
                          Isotropic Fermi Contact Couplings
        Atom                 a.u.       MegaHertz       Gauss      10(-4) cm-1
     1  H(1)              -0.02285    -102.12899     -36.44216     -34.06657
     2  H(1)               0.27669    1236.77165     441.31088     412.54262
     3  F(19)              0.05795     243.80966      86.99735      81.32615
 --------------------------------------------------------
       Center         ----  Spin Dipole Couplings  ----
                      3XX-RR        3YY-RR        3ZZ-RR
 --------------------------------------------------------
     1   Atom        0.379665     -0.189833     -0.189833
     2   Atom        0.010369     -0.005184     -0.005184
     3   Atom        2.269225     -1.134613     -1.134613
 --------------------------------------------------------
                        XY            XZ            YZ
 --------------------------------------------------------
     1   Atom        0.000000      0.000000      0.000000
     2   Atom        0.000000      0.000000      0.000000
     3   Atom        0.000000      0.000000      0.000000
 --------------------------------------------------------


 ---------------------------------------------------------------------------------
              Anisotropic Spin Dipole Couplings in Principal Axis System
 ---------------------------------------------------------------------------------

       Atom             a.u.   MegaHertz   Gauss  10(-4) cm-1        Axes

              Baa    -0.1898  -101.286   -36.141   -33.785  0.0000  0.0000  1.0000
     1 H(1)   Bbb    -0.1898  -101.286   -36.141   -33.785 -0.0000  1.0000  0.0000
              Bcc     0.3797   202.571    72.282    67.570  1.0000  0.0000  0.0000
 
              Baa    -0.0052    -2.766    -0.987    -0.923 -0.0000  1.0000  0.0000
     2 H(1)   Bbb    -0.0052    -2.766    -0.987    -0.923  0.0000  0.0000  1.0000
              Bcc     0.0104     5.532     1.974     1.845  1.0000  0.0000  0.0000
 
              Baa    -1.1346  -569.832  -203.330  -190.075  0.0000  0.0000  1.0000
     3 F(19)  Bbb    -1.1346  -569.832  -203.330  -190.075 -0.0000  1.0000  0.0000
              Bcc     2.2692  1139.663   406.660   380.151  1.0000  0.0000  0.0000
 

 ---------------------------------------------------------------------------------

 Calling FoFJK, ICntrl=    100127 FMM=F ISym2X=0 I1Cent= 0 IOpClX= 1 NMat=1 NMatS=1 NMatT=0.
 Full mass-weighted force constant matrix:
 Low frequencies ----1529.4496-1529.4496 -643.0628 -643.0628   -0.0011   -0.0009
 Low frequencies ---   -0.0009 2270.2694 3322.0273
 ******    2 imaginary frequencies (negative Signs) ****** 
 Diagonal vibrational polarizability:
        0.5667172       0.6217937       0.6217937
 Harmonic frequencies (cm**-1), IR intensities (KM/Mole), Raman scattering
 activities (A**4/AMU), depolarization ratios for plane and unpolarized
 incident light, reduced masses (AMU), force constants (mDyne/A),
 and normal coordinates:
                      1                      2                      3
                      A                      A                      A
 Frequencies --  -1515.9169             -1515.9169              2270.2694
 Red. masses --      1.0167                 1.0167                 1.0818
 Frc consts  --      1.3765                 1.3765                 3.2852
 IR Inten    --     53.0963                53.0963               106.3194
  Atom  AN      X      Y      Z        X      Y      Z        X      Y      Z
     1   1    -0.00   0.88   0.00    -0.00  -0.00   0.88     0.24   0.00   0.00
     2   1    -0.00  -0.47  -0.00    -0.00   0.00  -0.47     0.97  -0.00  -0.00
     3   9     0.00  -0.02  -0.00     0.00   0.00  -0.02    -0.06  -0.00  -0.00
                      4
                      A
 Frequencies --   3322.0273
 Red. masses --      1.0309
 Frc consts  --      6.7034
 IR Inten    --      4.7538
  Atom  AN      X      Y      Z
     1   1     0.96   0.00   0.00
     2   1    -0.28  -0.00  -0.00
     3   9    -0.04  -0.00  -0.00

 -------------------
 - Thermochemistry -
 -------------------
 Temperature   298.150 Kelvin.  Pressure   1.00000 Atm.
 Atom     1 has atomic number  1 and mass   1.00783
 Atom     2 has atomic number  1 and mass   1.00783
 Atom     3 has atomic number  9 and mass  18.99840
 Molecular mass:    21.01405 amu.
 Principal axes and moments of inertia in atomic units:
                           1         2         3
     Eigenvalues --     0.00000  13.60355  13.60355
           X            1.00000  -0.00000   0.00000
           Y            0.00000   1.00000   0.00000
           Z            0.00000   0.00000   1.00000
 This molecule is a prolate symmetric top.
 Rotational symmetry number  1.
 Rotational temperature (Kelvin)      6.36701
 Rotational constant (GHZ):         132.666899
    2 imaginary frequencies ignored.
 Zero-point vibrational energy      33449.4 (Joules/Mol)
                                    7.99459 (Kcal/Mol)
 Vibrational temperatures:   3266.41  4779.66
          (Kelvin)
 
 Zero-point correction=                           0.012740 (Hartree/Particle)
 Thermal correction to Energy=                    0.015101
 Thermal correction to Enthalpy=                  0.016045
 Thermal correction to Gibbs Free Energy=        -0.005848
 Sum of electronic and zero-point Energies=           -100.930938
 Sum of electronic and thermal Energies=              -100.928577
 Sum of electronic and thermal Enthalpies=            -100.927633
 Sum of electronic and thermal Free Energies=         -100.949526
 
                     E (Thermal)             CV                S
                      KCal/Mol        Cal/Mol-Kelvin    Cal/Mol-Kelvin
 Total                    9.476              4.972             46.077
 Electronic               0.000              0.000              1.377
 Translational            0.889              2.981             35.068
 Rotational               0.592              1.987              9.631
 Vibrational              7.995              0.004              0.000
                       Q            Log10(Q)             Ln(Q)
 Total Bot       0.489419D+03          2.689681          6.193218
 Total V=0       0.354614D+09          8.549756         19.686540
 Vib (Bot)       0.138017D-05         -5.860068        -13.493304
 Vib (V=0)       0.100002D+01          0.000008          0.000018
 Electronic      0.200000D+01          0.301030          0.693147
 Translational   0.378633D+07          6.578219         15.146908
 Rotational      0.468273D+02          1.670499          3.846467
 -------------------------------------------------------------------
 Center     Atomic                   Forces (Hartrees/Bohr)
 Number     Number              X              Y              Z
 -------------------------------------------------------------------
      1        1           0.007562492   -0.000000000    0.000000000
      2        1          -0.072815534    0.000000000   -0.000000000
      3        9           0.065253042    0.000000000   -0.000000000
 -------------------------------------------------------------------
 Cartesian Forces:  Max     0.072815534 RMS     0.032689197

 GradGradGradGradGradGradGradGradGradGradGradGradGradGradGradGradGradGrad
 Berny optimization.
 Search for a local minimum.
 Step number   1 out of a maximum of    2
 All quantities printed in internal units (Hartrees-Bohrs-Radians)
 Second derivative matrix not updated -- analytic derivatives used.
 The second derivative matrix:
                          X1        Y1        Z1        X2        Y2
           X1           0.38864
           Y1           0.00000  -0.06312
           Z1           0.00000  -0.00000  -0.06312
           X2          -0.06885   0.00000   0.00000   0.20467
           Y2          -0.00000   0.03554   0.00000  -0.00000  -0.04016
           Z2           0.00000   0.00000   0.03554  -0.00000  -0.00000
           X3          -0.31978  -0.00000  -0.00000  -0.13582   0.00000
           Y3          -0.00000   0.02758   0.00000   0.00000   0.00463
           Z3           0.00000   0.00000   0.02758   0.00000  -0.00000
                          Z2        X3        Y3        Z3
           Z2          -0.04016
           X3          -0.00000   0.45561
           Y3           0.00000  -0.00000  -0.03221
           Z3           0.00463  -0.00000  -0.00000  -0.03221
 ITU=  0
     Eigenvalues ---   -0.09248  -0.09248   0.28344   0.59980
 Eigenvalue     1 is  -9.25D-02 should be greater than     0.000000 Eigenvector:
                          Y1        Y2        Y3        Z1        Z2
   1                    0.87594  -0.46230  -0.13788  -0.00058   0.00031
                          Z3        X2        X1        X3
   1                    0.00009  -0.00000  -0.00000   0.00000
 Eigenvalue     2 is  -9.25D-02 should be greater than     0.000000 Eigenvector:
                          Z1        Z2        Z3        Y1        Y2
   1                    0.87594  -0.46230  -0.13788   0.00058  -0.00031
                          Y3        X2        X1        X3
   1                   -0.00009  -0.00000  -0.00000   0.00000
 Quadratic step=3.020D-01 exceeds max=3.000D-01 adjusted using Lamda=-1.872D-03.
 Angle between NR and scaled steps=   0.03 degrees.
 Angle between quadratic step and forces=  25.67 degrees.
 Linear search not attempted -- first point.
 B after Tr=     0.055368   -0.000000   -0.000000
         Rot=    0.882759    0.469826   -0.000000   -0.000000 Ang=  56.05 deg.
 Variable       Old X    -DE/DX   Delta X   Delta X   Delta X     New X
                                 (Linear)    (Quad)   (Total)
    X1        0.00000   0.00756   0.00000   0.03680   0.09217   0.09217
    Y1        0.00000  -0.00000   0.00000  -0.00000   0.00000   0.00000
    Z1        0.00000   0.00000   0.00000   0.00000   0.00000   0.00000
    X2       -1.60627  -0.07282   0.00000  -0.28596  -0.23059  -1.83686
    Y2        0.00000   0.00000   0.00000   0.00000  -0.00000  -0.00000
    Z2        0.00000  -0.00000   0.00000  -0.00000  -0.00000  -0.00000
    X3        1.79524   0.06525   0.00000   0.08305   0.13842   1.93366
    Y3        0.00000   0.00000   0.00000   0.00000  -0.00000  -0.00000
    Z3        0.00000  -0.00000   0.00000  -0.00000  -0.00000  -0.00000
         Item               Value     Threshold  Converged?
 Maximum Force            0.072816     0.000450     NO 
 RMS     Force            0.032689     0.000300     NO 
 Maximum Displacement     0.230589     0.001800     NO 
 RMS     Displacement     0.094767     0.001200     NO 
 Predicted change in Energy=-1.334420D-02
 GradGradGradGradGradGradGradGradGradGradGradGradGradGradGradGradGradGrad


 ----------------------------------------------------------------------

 Electric dipole moment (input orientation):
 (Debye = 10**-18 statcoulomb cm , SI units = C m)
                  (au)            (Debye)         (10**-30 SI)
   Tot        0.650233D+00      0.165273D+01      0.551291D+01
   x         -0.650233D+00     -0.165273D+01     -0.551291D+01
   y          0.000000D+00      0.000000D+00      0.000000D+00
   z          0.000000D+00      0.000000D+00      0.000000D+00

 Dipole polarizability, Alpha (input orientation).
 (esu units = cm**3 , SI units = C**2 m**2 J**-1)
 Alpha(0;0):
               (au)            (10**-24 esu)      (10**-40 SI)
   iso        0.610646D+01      0.904884D+00      0.100682D+01
   aniso      0.106174D+02      0.157334D+01      0.175058D+01
   xx         0.131848D+02      0.195378D+01      0.217387D+01
   yx         0.000000D+00      0.000000D+00      0.000000D+00
   yy         0.256731D+01      0.380436D+00      0.423292D+00
   zx         0.000000D+00      0.000000D+00      0.000000D+00
   zy         0.000000D+00      0.000000D+00      0.000000D+00
   zz         0.256731D+01      0.380436D+00      0.423292D+00

 ----------------------------------------------------------------------

 Dipole orientation:
     1          0.00000000          0.00000000         -0.00000000
     1          0.00000000          0.00000000          1.60626721
     9         -0.00000000         -0.00000000         -1.79523982

 Electric dipole moment (dipole orientation):
 (Debye = 10**-18 statcoulomb cm , SI units = C m)
                  (au)            (Debye)         (10**-30 SI)
   Tot        0.650233D+00      0.165273D+01      0.551291D+01
   x          0.000000D+00      0.000000D+00      0.000000D+00
   y          0.000000D+00      0.000000D+00      0.000000D+00
   z          0.650233D+00      0.165273D+01      0.551291D+01

 Dipole polarizability, Alpha (dipole orientation).
 (esu units = cm**3 , SI units = C**2 m**2 J**-1)
 Alpha(0;0):
               (au)            (10**-24 esu)      (10**-40 SI)
   iso        0.610646D+01      0.904884D+00      0.100682D+01
   aniso      0.106174D+02      0.157334D+01      0.175058D+01
   xx         0.256731D+01      0.380436D+00      0.423292D+00
   yx         0.000000D+00      0.000000D+00      0.000000D+00
   yy         0.256731D+01      0.380436D+00      0.423292D+00
   zx         0.000000D+00      0.000000D+00      0.000000D+00
   zy         0.000000D+00      0.000000D+00      0.000000D+00
   zz         0.131848D+02      0.195378D+01      0.217387D+01

 ----------------------------------------------------------------------
 Unable to Open any file for archive entry.
 1\1\GINC-DESKTOP-B3RIHJD\Freq\UB3LYP\6-311G(d,p)\F1H2(2)\GARYX\22-Aug-
 2025\0\\# sp b3lyp/6-311g** Force nosymm scf=(qc)\\Title Card Required
 \\0,2\H,0.,0.,0.\H,-0.85,0.,0.\F,0.95,0.,0.\\Version=ES64L-G16RevC.01\
 HF=-100.9436783\S2=0.753217\S2-1=0.\S2A=0.750001\RMSD=1.653e-10\RMSF=3
 .269e-02\ZeroPoint=0.0127402\Thermal=0.0151008\ETot=-100.9285775\HTot=
 -100.9276333\GTot=-100.9495259\Dipole=-0.6502333,0.,0.\DipoleDeriv=0.0
 104982,0.,0.,0.,0.2807243,0.,0.,0.,0.2807243,0.3295202,0.,0.,0.,0.0430
 017,0.,0.,0.,0.0430017,-0.3400183,0.,0.,0.,-0.3237259,0.,0.,0.,-0.3237
 259\Polar=13.18476,0.,2.5673103,0.,0.,2.5673103\Quadrupole=-0.4805328,
 0.2402664,0.2402664,0.,0.,0.\PG=C*V [C*(H1H1F1)]\NImag=2\\0.38863653,0
 .,-0.06311839,0.,0.,-0.06311839,-0.06885258,0.,0.,0.20467487,0.,0.0355
 3586,0.,0.,-0.04016176,0.,0.,0.03553586,0.,0.,-0.04016176,-0.31978395,
 0.,0.,-0.13582230,0.,0.,0.45560625,0.,0.02758253,0.,0.,0.00462589,0.,0
 .,-0.03220842,0.,0.,0.02758253,0.,0.,0.00462589,0.,0.,-0.03220842\\-0.
 00756249,0.,0.,0.07281553,0.,0.,-0.06525304,0.,0.\\\@
 The archive entry for this job was punched.


 ALL THINGS ARE POSSIBLE EXCEPT SKIING THROUGH A REVOLVING DOOR.
 Job cpu time:       0 days  0 hours  0 minutes 14.7 seconds.
 Elapsed time:       0 days  0 hours  0 minutes  2.0 seconds.
 File lengths (MBytes):  RWF=      6 Int=      0 D2E=      0 Chk=      1 Scr=      1
 Normal termination of Gaussian 16 at Fri Aug 22 15:57:21 2025.
