 Entering Gaussian System, Link 0=g16
 Initial command:
 /home/garyx/gaussian/g16/l1.exe "/tmp/gaussian_scratch/Gau-283239.inp" -scrdir="/tmp/gaussian_scratch/"
 Entering Link 1 = /home/garyx/gaussian/g16/l1.exe PID=    283241.
  
 Copyright (c) 1988-2019, Gaussian, Inc.  All Rights Reserved.
  
 This is part of the Gaussian(R) 16 program.  It is based on
 the Gaussian(R) 09 system (copyright 2009, Gaussian, Inc.),
 the Gaussian(R) 03 system (copyright 2003, Gaussian, Inc.),
 the Gaussian(R) 98 system (copyright 1998, Gaussian, Inc.),
 the Gaussian(R) 94 system (copyright 1995, Gaussian, Inc.),
 the Gaussian 92(TM) system (copyright 1992, Gaussian, Inc.),
 the Gaussian 90(TM) system (copyright 1990, Gaussian, Inc.),
 the Gaussian 88(TM) system (copyright 1988, Gaussian, Inc.),
 the Gaussian 86(TM) system (copyright 1986, Carnegie Mellon
 University), and the Gaussian 82(TM) system (copyright 1983,
 Carnegie Mellon University). Gaussian is a federally registered
 trademark of Gaussian, Inc.
  
 This software contains proprietary and confidential information,
 including trade secrets, belonging to Gaussian, Inc.
  
 This software is provided under written license and may be
 used, copied, transmitted, or stored only in accord with that
 written license.
  
 The following legend is applicable only to US Government
 contracts under FAR:
  
                    RESTRICTED RIGHTS LEGEND
  
 Use, reproduction and disclosure by the US Government is
 subject to restrictions as set forth in subparagraphs (a)
 and (c) of the Commercial Computer Software - Restricted
 Rights clause in FAR 52.227-19.
  
 Gaussian, Inc.
 340 Quinnipiac St., Bldg. 40, Wallingford CT 06492
  
  
 ---------------------------------------------------------------
 Warning -- This program may not be used in any manner that
 competes with the business of Gaussian, Inc. or will provide
 assistance to any competitor of Gaussian, Inc.  The licensee
 of this program is prohibited from giving any competitor of
 Gaussian, Inc. access to this program.  By using this program,
 the user acknowledges that Gaussian, Inc. is engaged in the
 business of creating and licensing software in the field of
 computational chemistry and represents and warrants to the
 licensee that it is not a competitor of Gaussian, Inc. and that
 it will not use this program in any manner prohibited above.
 ---------------------------------------------------------------
  

 Cite this work as:
 Gaussian 16, Revision C.01,
 M. J. Frisch, G. W. Trucks, H. B. Schlegel, G. E. Scuseria, 
 M. A. Robb, J. R. Cheeseman, G. Scalmani, V. Barone, 
 G. A. Petersson, H. Nakatsuji, X. Li, M. Caricato, A. V. Marenich, 
 J. Bloino, B. G. Janesko, R. Gomperts, B. Mennucci, H. P. Hratchian, 
 J. V. Ortiz, A. F. Izmaylov, J. L. Sonnenberg, D. Williams-Young, 
 F. Ding, F. Lipparini, F. Egidi, J. Goings, B. Peng, A. Petrone, 
 T. Henderson, D. Ranasinghe, V. G. Zakrzewski, J. Gao, N. Rega, 
 G. Zheng, W. Liang, M. Hada, M. Ehara, K. Toyota, R. Fukuda, 
 J. Hasegawa, M. Ishida, T. Nakajima, Y. Honda, O. Kitao, H. Nakai, 
 T. Vreven, K. Throssell, J. A. Montgomery, Jr., J. E. Peralta, 
 F. Ogliaro, M. J. Bearpark, J. J. Heyd, E. N. Brothers, K. N. Kudin, 
 V. N. Staroverov, T. A. Keith, R. Kobayashi, J. Normand, 
 K. Raghavachari, A. P. Rendell, J. C. Burant, S. S. Iyengar, 
 J. Tomasi, M. Cossi, J. M. Millam, M. Klene, C. Adamo, R. Cammi, 
 J. W. Ochterski, R. L. Martin, K. Morokuma, O. Farkas, 
 J. B. Foresman, and D. J. Fox, Gaussian, Inc., Wallingford CT, 2019.
 
 ******************************************
 Gaussian 16:  ES64L-G16RevC.01  3-Jul-2019
                22-Aug-2025 
 ******************************************
 %mem=10GB
 %nprocs=8
 Will use up to    8 processors via shared memory.
 -----------------------------------------
 # sp b3lyp/6-311g** Force nosymm scf=(qc)
 -----------------------------------------
 1/10=4,30=1,38=1/1,3;
 2/12=2,15=1,17=6,18=5,40=1/2;
 3/5=4,6=6,7=101,11=2,25=1,30=1,71=2,74=-5,140=1/1,2,3;
 4//1;
 5/5=2,8=3,38=5,98=1/8;
 8/6=4,10=90,11=11/1;
 11/6=1,8=1,9=11,15=111,16=1,31=1/1,2,10;
 10/6=1,31=1/2;
 6/7=2,8=2,9=2,10=2,28=1/1;
 7/8=1,10=1,25=1,30=1/1,2,3,16;
 1/10=4,30=1/3;
 99//99;
 -------------------
 Title Card Required
 -------------------
 Symbolic Z-matrix:
 Charge =  0 Multiplicity = 2
 H                     0.        0.        0. 
 H                    -2.05      0.        0. 
 F                     1.35      0.        0. 
 

 GradGradGradGradGradGradGradGradGradGradGradGradGradGradGradGradGradGrad
 Berny optimization.
 Initialization pass.
 Trust Radius=3.00D-01 FncErr=1.00D-07 GrdErr=1.00D-07 EigMax=2.50D+02 EigMin=1.00D-04
 Number of steps in this run=      2 maximum allowed number of steps=      2.
 GradGradGradGradGradGradGradGradGradGradGradGradGradGradGradGradGradGrad

                          Input orientation:                          
 ---------------------------------------------------------------------
 Center     Atomic      Atomic             Coordinates (Angstroms)
 Number     Number       Type             X           Y           Z
 ---------------------------------------------------------------------
      1          1           0        0.000000    0.000000    0.000000
      2          1           0       -2.050000    0.000000    0.000000
      3          9           0        1.350000    0.000000    0.000000
 ---------------------------------------------------------------------
                    Distance matrix (angstroms):
                    1          2          3
     1  H    0.000000
     2  H    2.050000   0.000000
     3  F    1.350000   3.400000   0.000000
 Symmetry turned off by external request.
 Stoichiometry    FH2(2)
 Framework group  C*V[C*(HHF)]
 Deg. of freedom     2
 Full point group                 C*V     NOp   4
 Rotational constants (GHZ):           0.0000000          40.7673417          40.7673417
 Standard basis: 6-311G(d,p) (5D, 7F)
    30 basis functions,    48 primitive gaussians,    31 cartesian basis functions
     6 alpha electrons        5 beta electrons
       nuclear repulsion energy         5.1867465030 Hartrees.
 NAtoms=    3 NActive=    3 NUniq=    3 SFac= 1.00D+00 NAtFMM=   60 NAOKFM=F Big=F
 Integral buffers will be    131072 words long.
 Raffenetti 2 integral format.
 Two-electron integral symmetry is turned off.
 One-electron integrals computed using PRISM.
 NBasis=    30 RedAO= T EigKep=  7.57D-02  NBF=    30
 NBsUse=    30 1.00D-06 EigRej= -1.00D+00 NBFU=    30
 ExpMin= 1.03D-01 ExpMax= 1.14D+04 ExpMxC= 1.72D+03 IAcc=3 IRadAn=         5 AccDes= 0.00D+00
 Harris functional with IExCor=  402 and IRadAn=       5 diagonalized for initial guess.
 HarFok:  IExCor=  402 AccDes= 0.00D+00 IRadAn=         5 IDoV= 1 UseB2=F ITyADJ=14
 ICtDFT=  3500011 ScaDFX=  1.000000  1.000000  1.000000  1.000000
 FoFCou: FMM=F IPFlag=           0 FMFlag=      100000 FMFlg1=           0
         NFxFlg=           0 DoJE=T BraDBF=F KetDBF=T FulRan=T
         wScrn=  0.000000 ICntrl=       500 IOpCl=  0 I1Cent=   200000004 NGrid=           0
         NMat0=    1 NMatS0=      1 NMatT0=    0 NMatD0=    1 NMtDS0=    0 NMtDT0=    0
 Symmetry not used in FoFCou.
 Initial guess <Sx>= 0.0000 <Sy>= 0.0000 <Sz>= 0.5000 <S**2>= 0.7500 S= 0.5000
 Keep R1 and R2 ints in memory in canonical form, NReq=7127049.
 Gradient too large for Newton-Raphson -- use scaled steepest descent instead.
     Accept linear search using points  1 and  2.
 Gradient too large for Newton-Raphson -- use scaled steepest descent instead.
 Gradient too large for Newton-Raphson -- use scaled steepest descent instead.
 Gradient too large for Newton-Raphson -- use scaled steepest descent instead.
     Accept linear search using points  1 and  2.
 Gradient too large for Newton-Raphson -- use scaled steepest descent instead.
 LinEq1:  Iter=  0 NonCon=     1 RMS=7.55D-04 Max=8.92D-03 NDo=     1
 AX will form     1 AO Fock derivatives at one time.
 LinEq1:  Iter=  1 NonCon=     1 RMS=6.91D-04 Max=8.57D-03 NDo=     1
 LinEq1:  Iter=  2 NonCon=     1 RMS=2.31D-04 Max=2.43D-03 NDo=     1
 LinEq1:  Iter=  3 NonCon=     1 RMS=1.85D-05 Max=1.45D-04 NDo=     1
 LinEq1:  Iter=  4 NonCon=     1 RMS=2.85D-06 Max=1.56D-05 NDo=     1
 LinEq1:  Iter=  5 NonCon=     1 RMS=4.71D-07 Max=3.92D-06 NDo=     1
 LinEq1:  Iter=  6 NonCon=     1 RMS=6.82D-08 Max=5.05D-07 NDo=     1
 LinEq1:  Iter=  7 NonCon=     1 RMS=7.80D-09 Max=4.98D-08 NDo=     1
 LinEq1:  Iter=  8 NonCon=     1 RMS=1.65D-09 Max=9.75D-09 NDo=     1
 LinEq1:  Iter=  9 NonCon=     0 RMS=1.19D-10 Max=7.46D-10 NDo=     1
 Linear equations converged to 1.640D-09 1.640D-08 after     9 iterations.
     Minimum is close to point  2 DX=  6.36D-03 DF= -1.91D-09 DXR=  6.32D-03 DFR=  4.00D-05 which will be used.
 LinEq1:  Iter=  0 NonCon=     1 RMS=4.64D-06 Max=5.17D-05 NDo=     1
 LinEq1:  Iter=  1 NonCon=     1 RMS=3.62D-06 Max=4.67D-05 NDo=     1
 LinEq1:  Iter=  2 NonCon=     1 RMS=1.32D-06 Max=1.37D-05 NDo=     1
 LinEq1:  Iter=  3 NonCon=     1 RMS=3.50D-07 Max=2.18D-06 NDo=     1
 LinEq1:  Iter=  4 NonCon=     1 RMS=1.01D-07 Max=1.17D-06 NDo=     1
 LinEq1:  Iter=  5 NonCon=     1 RMS=1.07D-08 Max=7.65D-08 NDo=     1
 LinEq1:  Iter=  6 NonCon=     1 RMS=1.62D-09 Max=1.11D-08 NDo=     1
 LinEq1:  Iter=  7 NonCon=     0 RMS=2.98D-10 Max=1.78D-09 NDo=     1
 Linear equations converged to 4.377D-10 4.377D-09 after     7 iterations.
 SCF Done:  E(UB3LYP) =  -100.892411433     a.u. after    8 cycles
            Convg  =    0.8804D-08                    35 Fock formations.
              S**2 =  0.7534                  -V/T =  2.0045
 <Sx>= 0.0000 <Sy>= 0.0000 <Sz>= 0.5000 <S**2>= 0.7534 S= 0.5017
 <L.S>=  0.00000000000    
 Annihilation of the first spin contaminant:
 S**2 before annihilation     0.7534,   after     0.7500
 DoSCS=F DFT=T ScalE2(SS,OS)=  1.000000  1.000000
 Range of M.O.s used for correlation:     1    30
 NBasis=    30 NAE=     6 NBE=     5 NFC=     0 NFV=     0
 NROrb=     30 NOA=     6 NOB=     5 NVA=    24 NVB=    25
 Symmetrizing basis deriv contribution to polar:
 IMax=3 JMax=2 DiffMx= 0.00D+00
 G2DrvN: will do     4 centers at a time, making    1 passes.
 Calling FoFCou, ICntrl=  3107 FMM=F I1Cent=   0 AccDes= 0.00D+00.
 End of G2Drv F.D. properties file   721 does not exist.
 End of G2Drv F.D. properties file   722 does not exist.
 End of G2Drv F.D. properties file   788 does not exist.
          IDoAtm=111
          Differentiating once with respect to electric field.
                with respect to dipole field.
          Differentiating once with respect to nuclear coordinates.
 Keep R1 and R2 ints in memory in canonical form, NReq=7101519.
          There are    12 degrees of freedom in the 1st order CPHF.  IDoFFX=6 NUNeed=     3.
      9 vectors produced by pass  0 Test12= 2.24D-15 8.33D-09 XBig12= 4.33D+01 4.27D+00.
 AX will form     9 AO Fock derivatives at one time.
      9 vectors produced by pass  1 Test12= 2.24D-15 8.33D-09 XBig12= 1.16D+01 1.42D+00.
      9 vectors produced by pass  2 Test12= 2.24D-15 8.33D-09 XBig12= 3.69D-01 3.61D-01.
      9 vectors produced by pass  3 Test12= 2.24D-15 8.33D-09 XBig12= 1.31D-03 1.36D-02.
      9 vectors produced by pass  4 Test12= 2.24D-15 8.33D-09 XBig12= 1.37D-05 1.06D-03.
      5 vectors produced by pass  5 Test12= 2.24D-15 8.33D-09 XBig12= 4.12D-08 5.66D-05.
      2 vectors produced by pass  6 Test12= 2.24D-15 8.33D-09 XBig12= 1.09D-10 3.81D-06.
      1 vectors produced by pass  7 Test12= 2.24D-15 8.33D-09 XBig12= 1.02D-13 9.17D-08.
 InvSVY:  IOpt=1 It=  1 EMax= 6.66D-16
 Solved reduced A of dimension    53 with     9 vectors.
 Isotropic polarizability for W=    0.000000        8.33 Bohr**3.
 End of Minotr F.D. properties file   721 does not exist.
 End of Minotr F.D. properties file   722 does not exist.
 End of Minotr F.D. properties file   788 does not exist.

 **********************************************************************

            Population analysis using the SCF Density.

 **********************************************************************

 Alpha  occ. eigenvalues --  -24.63703  -1.10316  -0.45530  -0.36758  -0.36349
 Alpha  occ. eigenvalues --   -0.36349
 Alpha virt. eigenvalues --   -0.08119   0.23576   0.27360   0.93604   0.93604
 Alpha virt. eigenvalues --    1.02812   1.09967   1.20451   1.20451   1.34337
 Alpha virt. eigenvalues --    1.34337   1.37008   1.70995   2.10730   2.27721
 Alpha virt. eigenvalues --    3.84070   3.84070   3.84370   3.84370   4.22664
 Alpha virt. eigenvalues --    6.05184   6.05184   6.11485  66.65042
  Beta  occ. eigenvalues --  -24.63436  -1.09628  -0.44349  -0.36101  -0.36101
  Beta virt. eigenvalues --   -0.15987  -0.04180   0.26855   0.33581   0.93561
  Beta virt. eigenvalues --    0.93561   1.03518   1.15543   1.33088   1.33088
  Beta virt. eigenvalues --    1.39518   1.39518   1.49032   1.71315   2.21044
  Beta virt. eigenvalues --    2.38678   3.84502   3.84502   3.84865   3.84865
  Beta virt. eigenvalues --    4.23542   6.05405   6.05405   6.12622  66.65301
          Condensed to atoms (all electrons):
               1          2          3
     1  H    0.466076   0.022928   0.178896
     2  H    0.022928   0.945770  -0.001947
     3  F    0.178896  -0.001947   9.188401
          Atomic-Atomic Spin Densities.
               1          2          3
     1  H   -0.047599   0.014703  -0.003799
     2  H    0.014703   0.942785  -0.002704
     3  F   -0.003799  -0.002704   0.088414
 Mulliken charges and spin densities:
               1          2
     1  H    0.332101  -0.036695
     2  H    0.033249   0.954784
     3  F   -0.365350   0.081911
 Sum of Mulliken charges =  -0.00000   1.00000
 Mulliken charges and spin densities with hydrogens summed into heavy atoms:
               1          2
     3  F   -0.000000   1.000000
 APT charges:
               1
     1  H    0.373298
     2  H   -0.008001
     3  F   -0.365297
 Sum of APT charges =  -0.00000
 APT charges with hydrogens summed into heavy atoms:
               1
     3  F   -0.000000
 Electronic spatial extent (au):  <R**2>=             90.6991
 Charge=             -0.0000 electrons
 Dipole moment (field-independent basis, Debye):
    X=             -2.8181    Y=              0.0000    Z=             -0.0000  Tot=              2.8181
 Quadrupole moment (field-independent basis, Debye-Ang):
   XX=             -8.6170   YY=             -7.2032   ZZ=             -7.2032
   XY=              0.0000   XZ=             -0.0000   YZ=              0.0000
 Traceless Quadrupole moment (field-independent basis, Debye-Ang):
   XX=             -0.9425   YY=              0.4713   ZZ=              0.4713
   XY=              0.0000   XZ=             -0.0000   YZ=              0.0000
 Octapole moment (field-independent basis, Debye-Ang**2):
  XXX=            -17.1447  YYY=              0.0000  ZZZ=             -0.0000  XYY=             -4.3552
  XXY=              0.0000  XXZ=             -0.0000  XZZ=             -4.3552  YZZ=              0.0000
  YYZ=             -0.0000  XYZ=              0.0000
 Hexadecapole moment (field-independent basis, Debye-Ang**3):
 XXXX=            -87.7776 YYYY=             -5.2995 ZZZZ=             -5.2995 XXXY=              0.0000
 XXXZ=             -0.0000 YYYX=              0.0000 YYYZ=              0.0000 ZZZX=             -0.0000
 ZZZY=              0.0000 XXYY=            -16.4465 XXZZ=            -16.4465 YYZZ=             -1.7665
 XXYZ=              0.0000 YYXZ=             -0.0000 ZZXY=              0.0000
 N-N= 5.186746503015D+00 E-N=-2.520152054437D+02  KE= 1.004453800813D+02
  Exact polarizability:      20.398       0.000       2.301      -0.000      -0.000       2.301
 Approx polarizability:      27.902       0.000       2.248      -0.000      -0.000       2.248
                          Isotropic Fermi Contact Couplings
        Atom                 a.u.       MegaHertz       Gauss      10(-4) cm-1
     1  H(1)              -0.01780     -79.55475     -28.38711     -26.53661
     2  H(1)               0.28763    1285.67376     458.76037     428.85460
     3  F(19)             -0.01801     -75.77627     -27.03886     -25.27624
 --------------------------------------------------------
       Center         ----  Spin Dipole Couplings  ----
                      3XX-RR        3YY-RR        3ZZ-RR
 --------------------------------------------------------
     1   Atom        0.048857     -0.024428     -0.024428
     2   Atom        0.001124     -0.000562     -0.000562
     3   Atom        0.555898     -0.277949     -0.277949
 --------------------------------------------------------
                        XY            XZ            YZ
 --------------------------------------------------------
     1   Atom        0.000000      0.000000      0.000000
     2   Atom        0.000000      0.000000      0.000000
     3   Atom        0.000000      0.000000      0.000000
 --------------------------------------------------------


 ---------------------------------------------------------------------------------
              Anisotropic Spin Dipole Couplings in Principal Axis System
 ---------------------------------------------------------------------------------

       Atom             a.u.   MegaHertz   Gauss  10(-4) cm-1        Axes

              Baa    -0.0244   -13.034    -4.651    -4.348  0.0000  0.0000  1.0000
     1 H(1)   Bbb    -0.0244   -13.034    -4.651    -4.348 -0.0000  1.0000  0.0000
              Bcc     0.0489    26.068     9.302     8.695  1.0000  0.0000  0.0000
 
              Baa    -0.0006    -0.300    -0.107    -0.100 -0.0000  1.0000  0.0000
     2 H(1)   Bbb    -0.0006    -0.300    -0.107    -0.100  0.0000  0.0000  1.0000
              Bcc     0.0011     0.600     0.214     0.200  1.0000  0.0000  0.0000
 
              Baa    -0.2779  -139.593   -49.810   -46.563  0.0000  0.0000  1.0000
     3 F(19)  Bbb    -0.2779  -139.593   -49.810   -46.563 -0.0000  1.0000  0.0000
              Bcc     0.5559   279.186    99.621    93.126  1.0000  0.0000  0.0000
 

 ---------------------------------------------------------------------------------

 Calling FoFJK, ICntrl=    100127 FMM=F ISym2X=0 I1Cent= 0 IOpClX= 1 NMat=1 NMatS=1 NMatT=0.
 Full mass-weighted force constant matrix:
 Low frequencies ----1258.2989 -251.5800   -0.0016   -0.0016    0.0014  175.5150
 Low frequencies ---  175.5150 1163.6315 1163.6315
 ******    2 imaginary frequencies (negative Signs) ****** 
 Diagonal vibrational polarizability:
        3.5409977       2.0995128       2.0995128
 Harmonic frequencies (cm**-1), IR intensities (KM/Mole), Raman scattering
 activities (A**4/AMU), depolarization ratios for plane and unpolarized
 incident light, reduced masses (AMU), force constants (mDyne/A),
 and normal coordinates:
                      1                      2                      3
                      A                      A                      A
 Frequencies --  -1258.2989              -251.5800              1090.6150
 Red. masses --      1.0342                 1.0783                 1.0237
 Frc consts  --      0.9647                 0.0402                 0.7174
 IR Inten    --    204.3385                 0.1597                92.7958
  Atom  AN      X      Y      Z        X      Y      Z        X      Y      Z
     1   1     0.97   0.00  -0.00     0.20  -0.00   0.00    -0.00   0.93   0.01
     2   1    -0.25  -0.00   0.00     0.98   0.00  -0.00     0.00  -0.37  -0.00
     3   9    -0.04  -0.00   0.00    -0.06   0.00  -0.00     0.00  -0.03  -0.00
                      4
                      A
 Frequencies --   1090.6150
 Red. masses --      1.0237
 Frc consts  --      0.7174
 IR Inten    --     92.7958
  Atom  AN      X      Y      Z
     1   1     0.00  -0.01   0.93
     2   1    -0.00   0.00  -0.37
     3   9    -0.00   0.00  -0.03

 -------------------
 - Thermochemistry -
 -------------------
 Temperature   298.150 Kelvin.  Pressure   1.00000 Atm.
 Atom     1 has atomic number  1 and mass   1.00783
 Atom     2 has atomic number  1 and mass   1.00783
 Atom     3 has atomic number  9 and mass  18.99840
 Molecular mass:    21.01405 amu.
 Principal axes and moments of inertia in atomic units:
                           1         2         3
     Eigenvalues --     0.00000  44.26929  44.26929
           X            1.00000  -0.00000   0.00000
           Y            0.00000   1.00000   0.00000
           Z            0.00000   0.00000   1.00000
 This molecule is a prolate symmetric top.
 Rotational symmetry number  1.
 Rotational temperature (Kelvin)      1.95652
 Rotational constant (GHZ):          40.767342
    2 imaginary frequencies ignored.
 Zero-point vibrational energy      13046.7 (Joules/Mol)
                                    3.11822 (Kcal/Mol)
 Vibrational temperatures:   1569.15  1569.15
          (Kelvin)
 
 Zero-point correction=                           0.004969 (Hartree/Particle)
 Thermal correction to Energy=                    0.007381
 Thermal correction to Enthalpy=                  0.008326
 Thermal correction to Gibbs Free Energy=        -0.014742
 Sum of electronic and zero-point Energies=           -100.887442
 Sum of electronic and thermal Energies=              -100.885030
 Sum of electronic and thermal Enthalpies=            -100.884086
 Sum of electronic and thermal Free Energies=         -100.907154
 
                     E (Thermal)             CV                S
                      KCal/Mol        Cal/Mol-Kelvin    Cal/Mol-Kelvin
 Total                    4.632              5.544             48.551
 Electronic               0.000              0.000              1.377
 Translational            0.889              2.981             35.068
 Rotational               0.592              1.987             11.976
 Vibrational              3.151              0.576              0.130
                       Q            Log10(Q)             Ln(Q)
 Total Bot       0.603997D+07          6.781034         15.613909
 Total V=0       0.116603D+10          9.066709         20.876869
 Vib (Bot)       0.523403D-02         -2.281164         -5.252574
 Vib (V=0)       0.101044D+01          0.004511          0.010387
 Electronic      0.200000D+01          0.301030          0.693147
 Translational   0.378633D+07          6.578219         15.146908
 Rotational      0.152388D+03          2.182950          5.026427
 -------------------------------------------------------------------
 Center     Atomic                   Forces (Hartrees/Bohr)
 Number     Number              X              Y              Z
 -------------------------------------------------------------------
      1        1           0.117554171   -0.000000000    0.000000000
      2        1           0.004274207    0.000000000   -0.000000000
      3        9          -0.121828378    0.000000000   -0.000000000
 -------------------------------------------------------------------
 Cartesian Forces:  Max     0.121828378 RMS     0.056449984

 GradGradGradGradGradGradGradGradGradGradGradGradGradGradGradGradGradGrad
 Berny optimization.
 Search for a local minimum.
 Step number   1 out of a maximum of    2
 All quantities printed in internal units (Hartrees-Bohrs-Radians)
 Second derivative matrix not updated -- analytic derivatives used.
 The second derivative matrix:
                          X1        Y1        Z1        X2        Y2
           X1          -0.05527
           Y1          -0.00000   0.04913
           Z1           0.00000  -0.00000   0.04913
           X2           0.01362   0.00000  -0.00000  -0.00574
           Y2          -0.00000  -0.00121   0.00000   0.00000   0.00115
           Z2           0.00000   0.00000  -0.00121  -0.00000  -0.00000
           X3           0.04164   0.00000  -0.00000  -0.00788   0.00000
           Y3           0.00000  -0.04792   0.00000  -0.00000   0.00007
           Z3          -0.00000   0.00000  -0.04792   0.00000  -0.00000
                          Z2        X3        Y3        Z3
           Z2           0.00115
           X3          -0.00000  -0.03376
           Y3          -0.00000  -0.00000   0.04785
           Z3           0.00007   0.00000  -0.00000   0.04785
 ITU=  0
     Eigenvalues ---   -0.07869  -0.00381   0.05966   0.05966
 Eigenvalue     1 is  -7.87D-02 should be greater than     0.000000 Eigenvector:
                          X1        X3        X2        Y1        Z1
   1                    0.95340  -0.28967  -0.08437   0.00000  -0.00000
                          Y2        Y3        Z2        Z3
   1                   -0.00000  -0.00000   0.00000   0.00000
 Eigenvalue     2 is  -3.81D-03 should be greater than     0.000000 Eigenvector:
                          X2        X3        X1        Y1        Z1
   1                    0.94972  -0.31290  -0.01102  -0.00000   0.00000
                          Y2        Y3        Z2        Z3
   1                    0.00000   0.00000  -0.00000  -0.00000
 Quadratic step=1.090D+01 exceeds max=3.000D-01 adjusted using Lamda=-4.364D-01.
 Angle between NR and scaled steps=  62.11 degrees.
 Angle between quadratic step and forces=  25.82 degrees.
 Linear search not attempted -- first point.
 B after Tr=    -0.074492    0.000000   -0.000000
         Rot=    0.996578    0.082653   -0.000000   -0.000000 Ang=   9.48 deg.
 Variable       Old X    -DE/DX   Delta X   Delta X   Delta X     New X
                                 (Linear)    (Quad)   (Total)
    X1        0.00000   0.11755   0.00000   0.27109   0.19659   0.19659
    Y1        0.00000  -0.00000   0.00000  -0.00000  -0.00000  -0.00000
    Z1        0.00000   0.00000   0.00000   0.00000   0.00000   0.00000
    X2       -3.87394   0.00427   0.00000   0.06413  -0.01036  -3.88430
    Y2        0.00000   0.00000   0.00000   0.00000   0.00000   0.00000
    Z2        0.00000  -0.00000   0.00000  -0.00000  -0.00000  -0.00000
    X3        2.55113  -0.12183   0.00000  -0.11174  -0.18623   2.36490
    Y3        0.00000   0.00000   0.00000   0.00000   0.00000   0.00000
    Z3        0.00000  -0.00000   0.00000  -0.00000  -0.00000  -0.00000
         Item               Value     Threshold  Converged?
 Maximum Force            0.121828     0.000450     NO 
 RMS     Force            0.056450     0.000300     NO 
 Maximum Displacement     0.196593     0.001800     NO 
 RMS     Displacement     0.090331     0.001200     NO 
 Predicted change in Energy=-4.897538D-02
 GradGradGradGradGradGradGradGradGradGradGradGradGradGradGradGradGradGrad


 ----------------------------------------------------------------------

 Electric dipole moment (input orientation):
 (Debye = 10**-18 statcoulomb cm , SI units = C m)
                  (au)            (Debye)         (10**-30 SI)
   Tot        0.110871D+01      0.281806D+01      0.940002D+01
   x         -0.110871D+01     -0.281806D+01     -0.940002D+01
   y          0.000000D+00      0.000000D+00      0.000000D+00
   z          0.000000D+00      0.000000D+00      0.000000D+00

 Dipole polarizability, Alpha (input orientation).
 (esu units = cm**3 , SI units = C**2 m**2 J**-1)
 Alpha(0;0):
               (au)            (10**-24 esu)      (10**-40 SI)
   iso        0.833328D+01      0.123486D+01      0.137397D+01
   aniso      0.180971D+02      0.268172D+01      0.298381D+01
   xx         0.203980D+02      0.302267D+01      0.336318D+01
   yx         0.000000D+00      0.000000D+00      0.000000D+00
   yy         0.230091D+01      0.340959D+00      0.379368D+00
   zx         0.000000D+00      0.000000D+00      0.000000D+00
   zy         0.000000D+00      0.000000D+00      0.000000D+00
   zz         0.230091D+01      0.340959D+00      0.379368D+00

 ----------------------------------------------------------------------

 Dipole orientation:
     1          0.00000000          0.00000000          0.00000000
     1          0.00000000         -0.00000000          3.87393856
     9         -0.00000000          0.00000000         -2.55113027

 Electric dipole moment (dipole orientation):
 (Debye = 10**-18 statcoulomb cm , SI units = C m)
                  (au)            (Debye)         (10**-30 SI)
   Tot        0.110871D+01      0.281806D+01      0.940002D+01
   x          0.000000D+00      0.000000D+00      0.000000D+00
   y          0.000000D+00      0.000000D+00      0.000000D+00
   z          0.110871D+01      0.281806D+01      0.940002D+01

 Dipole polarizability, Alpha (dipole orientation).
 (esu units = cm**3 , SI units = C**2 m**2 J**-1)
 Alpha(0;0):
               (au)            (10**-24 esu)      (10**-40 SI)
   iso        0.833328D+01      0.123486D+01      0.137397D+01
   aniso      0.180971D+02      0.268172D+01      0.298381D+01
   xx         0.230091D+01      0.340959D+00      0.379368D+00
   yx         0.000000D+00      0.000000D+00      0.000000D+00
   yy         0.230091D+01      0.340959D+00      0.379368D+00
   zx         0.000000D+00      0.000000D+00      0.000000D+00
   zy         0.000000D+00      0.000000D+00      0.000000D+00
   zz         0.203980D+02      0.302267D+01      0.336318D+01

 ----------------------------------------------------------------------
 Unable to Open any file for archive entry.
 1\1\GINC-DESKTOP-B3RIHJD\Freq\UB3LYP\6-311G(d,p)\F1H2(2)\GARYX\22-Aug-
 2025\0\\# sp b3lyp/6-311g** Force nosymm scf=(qc)\\Title Card Required
 \\0,2\H,0.,0.,0.\H,-2.05,0.,0.\F,1.35,0.,0.\\Version=ES64L-G16RevC.01\
 HF=-100.8924114\S2=0.753375\S2-1=0.\S2A=0.75\RMSD=5.368e-10\RMSF=5.645
 e-02\ZeroPoint=0.0049692\Thermal=0.0073814\ETot=-100.88503\HTot=-100.8
 840858\GTot=-100.9071538\Dipole=-1.1087087,0.,0.\DipoleDeriv=0.4418441
 ,0.,0.,0.,0.339025,0.,0.,0.,0.339025,-0.0999003,0.,0.,0.,0.037948,0.,0
 .,0.,0.037948,-0.3419438,0.,0.,0.,-0.3769729,0.,0.,0.,-0.3769729\Polar
 =20.398019,0.,2.3009066,0.,0.,2.3009066\Quadrupole=-0.7007599,0.35038,
 0.35038,0.,0.,0.\PG=C*V [C*(H1H1F1)]\NImag=2\\-0.05526687,0.,0.0491324
 7,0.,0.,0.04913247,0.01362425,0.,0.,-0.00574321,0.,-0.00121200,0.,0.,0
 .00114638,0.,0.,-0.00121200,0.,0.,0.00114638,0.04164262,0.,0.,-0.00788
 103,0.,0.,-0.03376159,0.,-0.04792047,0.,0.,0.00006562,0.,0.,0.04785485
 ,0.,0.,-0.04792047,0.,0.,0.00006562,0.,0.,0.04785485\\-0.11755417,0.,0
 .,-0.00427421,0.,0.,0.12182838,0.,0.\\\@
 The archive entry for this job was punched.


 QUANTUM MECHANICS IS BOHRING -- M.S. GORDON
 Job cpu time:       0 days  0 hours  0 minutes 15.0 seconds.
 Elapsed time:       0 days  0 hours  0 minutes  2.1 seconds.
 File lengths (MBytes):  RWF=      6 Int=      0 D2E=      0 Chk=      1 Scr=      1
 Normal termination of Gaussian 16 at Fri Aug 22 16:17:38 2025.
