 Entering Gaussian System, Link 0=g16
 Initial command:
 /home/garyx/gaussian/g16/l1.exe "/tmp/gaussian_scratch/Gau-514784.inp" -scrdir="/tmp/gaussian_scratch/"
 Entering Link 1 = /home/garyx/gaussian/g16/l1.exe PID=    514786.
  
 Copyright (c) 1988-2019, Gaussian, Inc.  All Rights Reserved.
  
 This is part of the Gaussian(R) 16 program.  It is based on
 the Gaussian(R) 09 system (copyright 2009, Gaussian, Inc.),
 the Gaussian(R) 03 system (copyright 2003, Gaussian, Inc.),
 the Gaussian(R) 98 system (copyright 1998, Gaussian, Inc.),
 the Gaussian(R) 94 system (copyright 1995, Gaussian, Inc.),
 the Gaussian 92(TM) system (copyright 1992, Gaussian, Inc.),
 the Gaussian 90(TM) system (copyright 1990, Gaussian, Inc.),
 the Gaussian 88(TM) system (copyright 1988, Gaussian, Inc.),
 the Gaussian 86(TM) system (copyright 1986, Carnegie Mellon
 University), and the Gaussian 82(TM) system (copyright 1983,
 Carnegie Mellon University). Gaussian is a federally registered
 trademark of Gaussian, Inc.
  
 This software contains proprietary and confidential information,
 including trade secrets, belonging to Gaussian, Inc.
  
 This software is provided under written license and may be
 used, copied, transmitted, or stored only in accord with that
 written license.
  
 The following legend is applicable only to US Government
 contracts under FAR:
  
                    RESTRICTED RIGHTS LEGEND
  
 Use, reproduction and disclosure by the US Government is
 subject to restrictions as set forth in subparagraphs (a)
 and (c) of the Commercial Computer Software - Restricted
 Rights clause in FAR 52.227-19.
  
 Gaussian, Inc.
 340 Quinnipiac St., Bldg. 40, Wallingford CT 06492
  
  
 ---------------------------------------------------------------
 Warning -- This program may not be used in any manner that
 competes with the business of Gaussian, Inc. or will provide
 assistance to any competitor of Gaussian, Inc.  The licensee
 of this program is prohibited from giving any competitor of
 Gaussian, Inc. access to this program.  By using this program,
 the user acknowledges that Gaussian, Inc. is engaged in the
 business of creating and licensing software in the field of
 computational chemistry and represents and warrants to the
 licensee that it is not a competitor of Gaussian, Inc. and that
 it will not use this program in any manner prohibited above.
 ---------------------------------------------------------------
  

 Cite this work as:
 Gaussian 16, Revision C.01,
 M. J. Frisch, G. W. Trucks, H. B. Schlegel, G. E. Scuseria, 
 M. A. Robb, J. R. Cheeseman, G. Scalmani, V. Barone, 
 G. A. Petersson, H. Nakatsuji, X. Li, M. Caricato, A. V. Marenich, 
 J. Bloino, B. G. Janesko, R. Gomperts, B. Mennucci, H. P. Hratchian, 
 J. V. Ortiz, A. F. Izmaylov, J. L. Sonnenberg, D. Williams-Young, 
 F. Ding, F. Lipparini, F. Egidi, J. Goings, B. Peng, A. Petrone, 
 T. Henderson, D. Ranasinghe, V. G. Zakrzewski, J. Gao, N. Rega, 
 G. Zheng, W. Liang, M. Hada, M. Ehara, K. Toyota, R. Fukuda, 
 J. Hasegawa, M. Ishida, T. Nakajima, Y. Honda, O. Kitao, H. Nakai, 
 T. Vreven, K. Throssell, J. A. Montgomery, Jr., J. E. Peralta, 
 F. Ogliaro, M. J. Bearpark, J. J. Heyd, E. N. Brothers, K. N. Kudin, 
 V. N. Staroverov, T. A. Keith, R. Kobayashi, J. Normand, 
 K. Raghavachari, A. P. Rendell, J. C. Burant, S. S. Iyengar, 
 J. Tomasi, M. Cossi, J. M. Millam, M. Klene, C. Adamo, R. Cammi, 
 J. W. Ochterski, R. L. Martin, K. Morokuma, O. Farkas, 
 J. B. Foresman, and D. J. Fox, Gaussian, Inc., Wallingford CT, 2019.
 
 ******************************************
 Gaussian 16:  ES64L-G16RevC.01  3-Jul-2019
                22-Aug-2025 
 ******************************************
 %mem=10GB
 %nprocs=8
 Will use up to    8 processors via shared memory.
 -----------------------------------------
 # sp b3lyp/6-311g** Force nosymm scf=(qc)
 -----------------------------------------
 1/10=4,30=1,38=1/1,3;
 2/12=2,15=1,17=6,18=5,40=1/2;
 3/5=4,6=6,7=101,11=2,25=1,30=1,71=2,74=-5,140=1/1,2,3;
 4//1;
 5/5=2,8=3,38=5,98=1/8;
 8/6=4,10=90,11=11/1;
 11/6=1,8=1,9=11,15=111,16=1,31=1/1,2,10;
 10/6=1,31=1/2;
 6/7=2,8=2,9=2,10=2,28=1/1;
 7/8=1,10=1,25=1,30=1/1,2,3,16;
 1/10=4,30=1/3;
 99//99;
 -------------------
 Title Card Required
 -------------------
 Symbolic Z-matrix:
 Charge =  0 Multiplicity = 2
 H                     0.        0.        0. 
 H                    -2.        0.        0. 
 F                     2.2       0.        0. 
 

 GradGradGradGradGradGradGradGradGradGradGradGradGradGradGradGradGradGrad
 Berny optimization.
 Initialization pass.
 Trust Radius=3.00D-01 FncErr=1.00D-07 GrdErr=1.00D-07 EigMax=2.50D+02 EigMin=1.00D-04
 Number of steps in this run=      2 maximum allowed number of steps=      2.
 GradGradGradGradGradGradGradGradGradGradGradGradGradGradGradGradGradGrad

                          Input orientation:                          
 ---------------------------------------------------------------------
 Center     Atomic      Atomic             Coordinates (Angstroms)
 Number     Number       Type             X           Y           Z
 ---------------------------------------------------------------------
      1          1           0        0.000000    0.000000    0.000000
      2          1           0       -2.000000    0.000000    0.000000
      3          9           0        2.200000    0.000000    0.000000
 ---------------------------------------------------------------------
                    Distance matrix (angstroms):
                    1          2          3
     1  H    0.000000
     2  H    2.000000   0.000000
     3  F    2.200000   4.200000   0.000000
 Symmetry turned off by external request.
 Stoichiometry    FH2(2)
 Framework group  C*V[C*(HHF)]
 Deg. of freedom     2
 Full point group                 C*V     NOp   4
 Rotational constants (GHZ):           0.0000000          24.4426531          24.4426531
 Standard basis: 6-311G(d,p) (5D, 7F)
    30 basis functions,    48 primitive gaussians,    31 cartesian basis functions
     6 alpha electrons        5 beta electrons
       nuclear repulsion energy         3.5633556346 Hartrees.
 NAtoms=    3 NActive=    3 NUniq=    3 SFac= 1.00D+00 NAtFMM=   60 NAOKFM=F Big=F
 Integral buffers will be    131072 words long.
 Raffenetti 2 integral format.
 Two-electron integral symmetry is turned off.
 One-electron integrals computed using PRISM.
 NBasis=    30 RedAO= T EigKep=  7.65D-02  NBF=    30
 NBsUse=    30 1.00D-06 EigRej= -1.00D+00 NBFU=    30
 ExpMin= 1.03D-01 ExpMax= 1.14D+04 ExpMxC= 1.72D+03 IAcc=3 IRadAn=         5 AccDes= 0.00D+00
 Harris functional with IExCor=  402 and IRadAn=       5 diagonalized for initial guess.
 HarFok:  IExCor=  402 AccDes= 0.00D+00 IRadAn=         5 IDoV= 1 UseB2=F ITyADJ=14
 ICtDFT=  3500011 ScaDFX=  1.000000  1.000000  1.000000  1.000000
 FoFCou: FMM=F IPFlag=           0 FMFlag=      100000 FMFlg1=           0
         NFxFlg=           0 DoJE=T BraDBF=F KetDBF=T FulRan=T
         wScrn=  0.000000 ICntrl=       500 IOpCl=  0 I1Cent=   200000004 NGrid=           0
         NMat0=    1 NMatS0=      1 NMatT0=    0 NMatD0=    1 NMtDS0=    0 NMtDT0=    0
 Symmetry not used in FoFCou.
 Initial guess <Sx>= 0.0000 <Sy>= 0.0000 <Sz>= 0.5000 <S**2>= 0.7500 S= 0.5000
 Keep R1 and R2 ints in memory in canonical form, NReq=7127049.
 Gradient too large for Newton-Raphson -- use scaled steepest descent instead.
  Beta Gap=    -0.457 HL deriv= 8.51D-16 Rot set to   3.22D-01
     Minimum is close to point  3 DX=  1.40D-02 DF= -1.58D-04 DXR=  3.39D-02 DFR=  1.23D-03 which will be used.
 Gradient too large for Newton-Raphson -- use scaled steepest descent instead.
     Minimum is close to point  6 DX=  1.51D-01 DF= -2.42D-04 DXR=  6.15D-02 DFR=  4.40D-03 which will be used.
 Gradient too large for Newton-Raphson -- use scaled steepest descent instead.
     Minimum is close to point  3 DX= -9.74D-03 DF= -2.04D-05 DXR=  2.50D-02 DFR=  6.24D-04 which will be used.
 Gradient too large for Newton-Raphson -- use scaled steepest descent instead.
     Accept linear search using points  1 and  2.
 Gradient too large for Newton-Raphson -- use scaled steepest descent instead.
     Accept linear search using points  1 and  2.
 Gradient too large for Newton-Raphson -- use scaled steepest descent instead.
     Accept linear search using points  3 and  4.
 Gradient too large for Newton-Raphson -- use scaled steepest descent instead.
     Accept linear search using points  1 and  2.
 Gradient too large for Newton-Raphson -- use scaled steepest descent instead.
     Accept linear search using points  3 and  4.
     Minimum is close to point  4 DX= -7.28D-02 DF= -5.57D-06 DXR=  4.22D-02 DFR=  1.39D-03 which will be used.
 Gradient too large for Newton-Raphson -- use scaled steepest descent instead.
     Accept linear search using points  1 and  2.
 LinEq1:  Iter=  0 NonCon=     1 RMS=1.08D-03 Max=1.35D-02 NDo=     1
 AX will form     1 AO Fock derivatives at one time.
 LinEq1:  Iter=  1 NonCon=     1 RMS=9.59D-04 Max=1.41D-02 NDo=     1
 LinEq1:  Iter=  2 NonCon=     1 RMS=6.81D-04 Max=7.32D-03 NDo=     1
 LinEq1:  Iter=  3 NonCon=     1 RMS=2.18D-04 Max=3.16D-03 NDo=     1
 LinEq1:  Iter=  4 NonCon=     1 RMS=7.12D-05 Max=7.34D-04 NDo=     1
 LinEq1:  Iter=  5 NonCon=     1 RMS=4.81D-06 Max=2.85D-05 NDo=     1
 LinEq1:  Iter=  6 NonCon=     1 RMS=9.20D-07 Max=9.42D-06 NDo=     1
 LinEq1:  Iter=  7 NonCon=     1 RMS=1.84D-07 Max=1.48D-06 NDo=     1
 LinEq1:  Iter=  8 NonCon=     1 RMS=2.04D-08 Max=1.94D-07 NDo=     1
 LinEq1:  Iter=  9 NonCon=     1 RMS=2.81D-09 Max=1.81D-08 NDo=     1
 LinEq1:  Iter= 10 NonCon=     0 RMS=4.40D-10 Max=4.77D-09 NDo=     1
 Linear equations converged to 1.640D-09 1.640D-08 after    10 iterations.
     Accept linear search using points  1 and  2.
 LinEq1:  Iter=  0 NonCon=     1 RMS=5.27D-04 Max=7.81D-03 NDo=     1
 LinEq1:  Iter=  1 NonCon=     1 RMS=2.70D-04 Max=2.65D-03 NDo=     1
 LinEq1:  Iter=  2 NonCon=     1 RMS=1.35D-04 Max=1.74D-03 NDo=     1
 LinEq1:  Iter=  3 NonCon=     1 RMS=7.17D-05 Max=6.37D-04 NDo=     1
 LinEq1:  Iter=  4 NonCon=     1 RMS=1.37D-05 Max=9.62D-05 NDo=     1
 LinEq1:  Iter=  5 NonCon=     1 RMS=1.51D-06 Max=9.54D-06 NDo=     1
 LinEq1:  Iter=  6 NonCon=     1 RMS=3.77D-07 Max=3.44D-06 NDo=     1
 LinEq1:  Iter=  7 NonCon=     1 RMS=9.88D-08 Max=1.01D-06 NDo=     1
 LinEq1:  Iter=  8 NonCon=     1 RMS=1.91D-08 Max=1.26D-07 NDo=     1
 LinEq1:  Iter=  9 NonCon=     1 RMS=3.18D-09 Max=1.76D-08 NDo=     1
 LinEq1:  Iter= 10 NonCon=     0 RMS=3.36D-10 Max=2.62D-09 NDo=     1
 Linear equations converged to 1.640D-09 1.640D-08 after    10 iterations.
     Minimum is close to point  2 DX=  1.27D-02 DF= -2.38D-09 DXR=  1.25D-02 DFR=  1.57D-04 which will be used.
 LinEq1:  Iter=  0 NonCon=     1 RMS=4.16D-06 Max=5.25D-05 NDo=     1
 LinEq1:  Iter=  1 NonCon=     1 RMS=2.61D-06 Max=3.29D-05 NDo=     1
 LinEq1:  Iter=  2 NonCon=     1 RMS=1.75D-06 Max=1.40D-05 NDo=     1
 LinEq1:  Iter=  3 NonCon=     1 RMS=3.94D-07 Max=2.73D-06 NDo=     1
 LinEq1:  Iter=  4 NonCon=     1 RMS=4.17D-08 Max=3.11D-07 NDo=     1
 LinEq1:  Iter=  5 NonCon=     1 RMS=5.61D-09 Max=5.04D-08 NDo=     1
 LinEq1:  Iter=  6 NonCon=     1 RMS=1.43D-09 Max=1.31D-08 NDo=     1
 LinEq1:  Iter=  7 NonCon=     1 RMS=3.89D-10 Max=4.21D-09 NDo=     1
 LinEq1:  Iter=  8 NonCon=     0 RMS=1.05D-10 Max=1.09D-09 NDo=     1
 Linear equations converged to 2.707D-10 2.707D-09 after     8 iterations.
 SCF Done:  E(UB3LYP) =  -100.790487874     a.u. after   13 cycles
            Convg  =    0.1040D-06                    60 Fock formations.
              S**2 =  1.2872                  -V/T =  2.0029
 <Sx>= 0.0000 <Sy>= 0.0000 <Sz>= 0.5000 <S**2>= 1.2872 S= 0.7398
 <L.S>=  0.00000000000    
 Annihilation of the first spin contaminant:
 S**2 before annihilation     1.2872,   after     0.7510
 DoSCS=F DFT=T ScalE2(SS,OS)=  1.000000  1.000000
 Range of M.O.s used for correlation:     1    30
 NBasis=    30 NAE=     6 NBE=     5 NFC=     0 NFV=     0
 NROrb=     30 NOA=     6 NOB=     5 NVA=    24 NVB=    25
 Symmetrizing basis deriv contribution to polar:
 IMax=3 JMax=2 DiffMx= 0.00D+00
 G2DrvN: will do     4 centers at a time, making    1 passes.
 Calling FoFCou, ICntrl=  3107 FMM=F I1Cent=   0 AccDes= 0.00D+00.
 End of G2Drv F.D. properties file   721 does not exist.
 End of G2Drv F.D. properties file   722 does not exist.
 End of G2Drv F.D. properties file   788 does not exist.
          IDoAtm=111
          Differentiating once with respect to electric field.
                with respect to dipole field.
          Differentiating once with respect to nuclear coordinates.
 Keep R1 and R2 ints in memory in canonical form, NReq=7101519.
          There are    12 degrees of freedom in the 1st order CPHF.  IDoFFX=6 NUNeed=     3.
      9 vectors produced by pass  0 Test12= 2.24D-15 8.33D-09 XBig12= 1.94D+02 1.27D+01.
 AX will form     9 AO Fock derivatives at one time.
      9 vectors produced by pass  1 Test12= 2.24D-15 8.33D-09 XBig12= 2.39D+01 2.94D+00.
      9 vectors produced by pass  2 Test12= 2.24D-15 8.33D-09 XBig12= 1.29D+00 4.58D-01.
      9 vectors produced by pass  3 Test12= 2.24D-15 8.33D-09 XBig12= 5.54D-03 3.21D-02.
      7 vectors produced by pass  4 Test12= 2.24D-15 8.33D-09 XBig12= 3.37D-05 2.23D-03.
      7 vectors produced by pass  5 Test12= 2.24D-15 8.33D-09 XBig12= 2.16D-07 1.43D-04.
      1 vectors produced by pass  6 Test12= 2.24D-15 8.33D-09 XBig12= 1.00D-09 1.74D-05.
      1 vectors produced by pass  7 Test12= 2.24D-15 8.33D-09 XBig12= 7.08D-13 2.65D-07.
      1 vectors produced by pass  8 Test12= 2.24D-15 8.33D-09 XBig12= 9.04D-16 1.26D-08.
 InvSVY:  IOpt=1 It=  1 EMax= 1.22D-15
 Solved reduced A of dimension    53 with     9 vectors.
 Isotropic polarizability for W=    0.000000       19.43 Bohr**3.
 End of Minotr F.D. properties file   721 does not exist.
 End of Minotr F.D. properties file   722 does not exist.
 End of Minotr F.D. properties file   788 does not exist.

 **********************************************************************

            Population analysis using the SCF Density.

 **********************************************************************

 Alpha  occ. eigenvalues --  -24.69784  -1.16082  -0.48876  -0.41049  -0.41049
 Alpha  occ. eigenvalues --   -0.35742
 Alpha virt. eigenvalues --   -0.13299   0.24299   0.31624   0.88189   0.94534
 Alpha virt. eigenvalues --    0.94534   1.05136   1.22175   1.22175   1.25907
 Alpha virt. eigenvalues --    1.34290   1.34290   1.53222   2.10916   2.32848
 Alpha virt. eigenvalues --    3.71953   3.73601   3.73601   3.79698   3.79698
 Alpha virt. eigenvalues --    5.98276   5.99259   5.99259  66.54292
  Beta  occ. eigenvalues --  -24.67148  -1.08638  -0.38435  -0.38435  -0.36364
  Beta virt. eigenvalues --   -0.22371  -0.11727   0.26473   0.31828   0.92391
  Beta virt. eigenvalues --    0.95662   0.95662   1.08346   1.22522   1.22522
  Beta virt. eigenvalues --    1.33521   1.36533   1.36533   1.51548   2.11518
  Beta virt. eigenvalues --    2.35227   3.81061   3.81061   3.81778   3.81778
  Beta virt. eigenvalues --    3.83351   6.01491   6.01491   6.09892  66.56900
          Condensed to atoms (all electrons):
               1          2          3
     1  H    0.799495   0.067162   0.033762
     2  H    0.067162   0.894446  -0.000152
     3  F    0.033762  -0.000152   9.104516
          Atomic-Atomic Spin Densities.
               1          2          3
     1  H   -0.707403   0.016564  -0.016218
     2  H    0.016564   0.860453  -0.000354
     3  F   -0.016218  -0.000354   0.846965
 Mulliken charges and spin densities:
               1          2
     1  H    0.099581  -0.707057
     2  H    0.038545   0.876663
     3  F   -0.138126   0.830394
 Sum of Mulliken charges =  -0.00000   1.00000
 Mulliken charges and spin densities with hydrogens summed into heavy atoms:
               1          2
     3  F   -0.000000   1.000000
 APT charges:
               1
     1  H   -0.056822
     2  H    0.021742
     3  F    0.035081
 Sum of APT charges =  -0.00000
 APT charges with hydrogens summed into heavy atoms:
               1
     3  F   -0.000000
 Electronic spatial extent (au):  <R**2>=            187.4959
 Charge=             -0.0000 electrons
 Dipole moment (field-independent basis, Debye):
    X=             -1.8973    Y=              0.0000    Z=             -0.0000  Tot=              1.8973
 Quadrupole moment (field-independent basis, Debye-Ang):
   XX=             -8.5410   YY=             -7.6035   ZZ=             -7.6035
   XY=              0.0000   XZ=             -0.0000   YZ=              0.0000
 Traceless Quadrupole moment (field-independent basis, Debye-Ang):
   XX=             -0.6250   YY=              0.3125   ZZ=              0.3125
   XY=              0.0000   XZ=             -0.0000   YZ=              0.0000
 Octapole moment (field-independent basis, Debye-Ang**2):
  XXX=            -29.7165  YYY=              0.0000  ZZZ=             -0.0000  XYY=             -8.3259
  XXY=              0.0000  XXZ=             -0.0000  XZZ=             -8.3259  YZZ=              0.0000
  YYZ=             -0.0000  XYZ=              0.0000
 Hexadecapole moment (field-independent basis, Debye-Ang**3):
 XXXX=           -165.6336 YYYY=             -6.2219 ZZZZ=             -6.2219 XXXY=              0.0000
 XXXZ=             -0.0000 YYYX=              0.0000 YYYZ=              0.0000 ZZZX=             -0.0000
 ZZZY=              0.0000 XXYY=            -31.2113 XXZZ=            -31.2113 YYZZ=             -2.0740
 XXYZ=              0.0000 YYXZ=             -0.0000 ZZXY=              0.0000
 N-N= 3.563355634572D+00 E-N=-2.484129148186D+02  KE= 1.004969649358D+02
  Exact polarizability:      54.221       0.000       2.031      -0.000      -0.000       2.031
 Approx polarizability:      62.467      -0.000       1.943       0.000      -0.000       1.943
                          Isotropic Fermi Contact Couplings
        Atom                 a.u.       MegaHertz       Gauss      10(-4) cm-1
     1  H(1)              -0.21677    -968.93809    -345.74120    -323.20296
     2  H(1)               0.26203    1171.25451     417.93274     390.68845
     3  F(19)              0.00048       2.03865       0.72744       0.68002
 --------------------------------------------------------
       Center         ----  Spin Dipole Couplings  ----
                      3XX-RR        3YY-RR        3ZZ-RR
 --------------------------------------------------------
     1   Atom        0.056567     -0.028284     -0.028284
     2   Atom       -0.019564      0.009782      0.009782
     3   Atom        5.304506     -2.652253     -2.652253
 --------------------------------------------------------
                        XY            XZ            YZ
 --------------------------------------------------------
     1   Atom       -0.000000      0.000000     -0.000000
     2   Atom       -0.000000      0.000000     -0.000000
     3   Atom        0.000001     -0.000000      0.000000
 --------------------------------------------------------


 ---------------------------------------------------------------------------------
              Anisotropic Spin Dipole Couplings in Principal Axis System
 ---------------------------------------------------------------------------------

       Atom             a.u.   MegaHertz   Gauss  10(-4) cm-1        Axes

              Baa    -0.0283   -15.091    -5.385    -5.034  0.0000  0.2702  0.9628
     1 H(1)   Bbb    -0.0283   -15.091    -5.385    -5.034  0.0000  0.9628 -0.2702
              Bcc     0.0566    30.181    10.769    10.067  1.0000 -0.0000  0.0000
 
              Baa    -0.0196   -10.438    -3.725    -3.482  1.0000  0.0000 -0.0000
     2 H(1)   Bbb     0.0098     5.219     1.862     1.741 -0.0000  0.2697  0.9630
              Bcc     0.0098     5.219     1.862     1.741 -0.0000  0.9630 -0.2697
 
              Baa    -2.6523 -1332.030  -475.301  -444.317 -0.0000  0.9629 -0.2699
     3 F(19)  Bbb    -2.6523 -1332.029  -475.301  -444.317  0.0000  0.2699  0.9629
              Bcc     5.3045  2664.059   950.602   888.634  1.0000  0.0000 -0.0000
 

 ---------------------------------------------------------------------------------

 Calling FoFJK, ICntrl=    100127 FMM=F ISym2X=0 I1Cent= 0 IOpClX= 1 NMat=1 NMatS=1 NMatT=0.
 Full mass-weighted force constant matrix:
 Low frequencies ----1457.6329 -503.2979   -0.0011    0.0015    0.0024  235.3703
 Low frequencies ---  235.3703  600.5278  600.5278
 ******    2 imaginary frequencies (negative Signs) ****** 
 Diagonal vibrational polarizability:
        6.3566108       0.4424683       0.4424683
 Harmonic frequencies (cm**-1), IR intensities (KM/Mole), Raman scattering
 activities (A**4/AMU), depolarization ratios for plane and unpolarized
 incident light, reduced masses (AMU), force constants (mDyne/A),
 and normal coordinates:
                      1                      2                      3
                      A                      A                      A
 Frequencies --  -1457.6329              -503.2979               598.6834
 Red. masses --      1.0130                 1.1023                 1.0168
 Frc consts  --      1.2681                 0.1645                 0.2147
 IR Inten    --    100.6781                47.8303                 5.8931
  Atom  AN      X      Y      Z        X      Y      Z        X      Y      Z
     1   1     0.85  -0.00   0.00     0.51  -0.00   0.00    -0.00   0.24   0.85
     2   1    -0.53   0.00  -0.00     0.86   0.00  -0.00     0.00  -0.13  -0.45
     3   9    -0.02   0.00  -0.00    -0.07   0.00  -0.00    -0.00  -0.01  -0.02
                      4
                      A
 Frequencies --    598.6834
 Red. masses --      1.0168
 Frc consts  --      0.2147
 IR Inten    --      5.8931
  Atom  AN      X      Y      Z
     1   1     0.00   0.85  -0.24
     2   1     0.00  -0.45   0.13
     3   9    -0.00  -0.02   0.01

 -------------------
 - Thermochemistry -
 -------------------
 Temperature   298.150 Kelvin.  Pressure   1.00000 Atm.
 Atom     1 has atomic number  1 and mass   1.00783
 Atom     2 has atomic number  1 and mass   1.00783
 Atom     3 has atomic number  9 and mass  18.99840
 Molecular mass:    21.01405 amu.
 Principal axes and moments of inertia in atomic units:
                           1         2         3
     Eigenvalues --     0.00000  73.83573  73.83573
           X            1.00000  -0.00000   0.00000
           Y            0.00000   1.00000   0.00000
           Z            0.00000   0.00000   1.00000
 This molecule is a prolate symmetric top.
 Rotational symmetry number  1.
 Rotational temperature (Kelvin)      1.17306
 Rotational constant (GHZ):          24.442653
    2 imaginary frequencies ignored.
 Zero-point vibrational energy       7161.8 (Joules/Mol)
                                    1.71172 (Kcal/Mol)
 Warning -- explicit consideration of   2 degrees of freedom as
           vibrations may cause significant error
 Vibrational temperatures:    861.37   861.37
          (Kelvin)
 
 Zero-point correction=                           0.002728 (Hartree/Particle)
 Thermal correction to Energy=                    0.005410
 Thermal correction to Enthalpy=                  0.006354
 Thermal correction to Gibbs Free Energy=        -0.017565
 Sum of electronic and zero-point Energies=           -100.787760
 Sum of electronic and thermal Energies=              -100.785078
 Sum of electronic and thermal Enthalpies=            -100.784134
 Sum of electronic and thermal Free Energies=         -100.808053
 
                     E (Thermal)             CV                S
                      KCal/Mol        Cal/Mol-Kelvin    Cal/Mol-Kelvin
 Total                    3.395              7.037             50.342
 Electronic               0.000              0.000              1.377
 Translational            0.889              2.981             35.068
 Rotational               0.592              1.987             12.992
 Vibrational              1.913              2.069              0.904
 Vibration     1          0.957              1.035              0.452
 Vibration     2          0.957              1.035              0.452
                       Q            Log10(Q)             Ln(Q)
 Total Bot       0.120054D+09          8.079376         18.603451
 Total V=0       0.215813D+10          9.334077         21.492506
 Vib (Bot)       0.623754D-01         -1.204986         -2.774584
 Vib (Bot)    1  0.249751D+00         -0.602493         -1.387292
 Vib (Bot)    2  0.249751D+00         -0.602493         -1.387292
 Vib (V=0)       0.112128D+01          0.049714          0.114472
 Vib (V=0)    1  0.105891D+01          0.024857          0.057236
 Vib (V=0)    2  0.105891D+01          0.024857          0.057236
 Electronic      0.200000D+01          0.301030          0.693147
 Translational   0.378633D+07          6.578219         15.146908
 Rotational      0.254164D+03          2.405114          5.537979
 -------------------------------------------------------------------
 Center     Atomic                   Forces (Hartrees/Bohr)
 Number     Number              X              Y              Z
 -------------------------------------------------------------------
      1        1           0.000403647   -0.000000000    0.000000000
      2        1           0.020068812   -0.000000000    0.000000000
      3        9          -0.020472459    0.000000000   -0.000000000
 -------------------------------------------------------------------
 Cartesian Forces:  Max     0.020472459 RMS     0.009557090

 GradGradGradGradGradGradGradGradGradGradGradGradGradGradGradGradGradGrad
 Berny optimization.
 Search for a local minimum.
 Step number   1 out of a maximum of    2
 All quantities printed in internal units (Hartrees-Bohrs-Radians)
 Second derivative matrix not updated -- analytic derivatives used.
 The second derivative matrix:
                          X1        Y1        Z1        X2        Y2
           X1          -0.06036
           Y1           0.00000   0.01028
           Z1          -0.00000  -0.00000   0.01028
           X2           0.03231  -0.00000   0.00000  -0.02902
           Y2          -0.00000  -0.00533  -0.00000   0.00000   0.00532
           Z2           0.00000  -0.00000  -0.00533  -0.00000  -0.00000
           X3           0.02805  -0.00000   0.00000  -0.00329   0.00000
           Y3          -0.00000  -0.00495   0.00000   0.00000   0.00001
           Z3           0.00000   0.00000  -0.00495  -0.00000   0.00000
                          Z2        X3        Y3        Z3
           Z2           0.00532
           X3          -0.00000  -0.02476
           Y3           0.00000   0.00000   0.00494
           Z3           0.00001  -0.00000  -0.00000   0.00494
 ITU=  0
     Eigenvalues ---   -0.08655  -0.01859   0.01464   0.01464
 Eigenvalue     1 is  -8.66D-02 should be greater than     0.000000 Eigenvector:
                          X1        X2        X3        Y1        Y2
   1                    0.89532  -0.41576  -0.15985  -0.00000   0.00000
                          Z1        Z2        Y3        Z3
   1                    0.00000  -0.00000   0.00000  -0.00000
 Eigenvalue     2 is  -1.86D-02 should be greater than     0.000000 Eigenvector:
                          X2        X3        X1        Y1        Y2
   1                    0.85804  -0.39530   0.32787  -0.00000   0.00000
                          Z1        Y3        Z2        Z3
   1                    0.00000   0.00000  -0.00000  -0.00000
 Quadratic step=1.370D+00 exceeds max=3.000D-01 adjusted using Lamda=-6.667D-02.
 Angle between NR and scaled steps=   3.60 degrees.
 Angle between quadratic step and forces=  25.89 degrees.
 Linear search not attempted -- first point.
 B after Tr=    -0.075380    0.000000   -0.000000
         Rot=    0.993829   -0.110923   -0.000000   -0.000000 Ang= -12.74 deg.
 Variable       Old X    -DE/DX   Delta X   Delta X   Delta X     New X
                                 (Linear)    (Quad)   (Total)
    X1        0.00000   0.00040   0.00000   0.07034  -0.00504  -0.00504
    Y1        0.00000  -0.00000   0.00000  -0.00000  -0.00000  -0.00000
    Z1        0.00000   0.00000   0.00000   0.00000   0.00000   0.00000
    X2       -3.77945   0.02007   0.00000   0.26887   0.19349  -3.58596
    Y2        0.00000  -0.00000   0.00000   0.00000   0.00000   0.00000
    Z2        0.00000   0.00000   0.00000  -0.00000  -0.00000  -0.00000
    X3        4.15740  -0.02047   0.00000  -0.11307  -0.18845   3.96895
    Y3        0.00000   0.00000   0.00000   0.00000   0.00000   0.00000
    Z3        0.00000  -0.00000   0.00000  -0.00000  -0.00000  -0.00000
         Item               Value     Threshold  Converged?
 Maximum Force            0.020472     0.000450     NO 
 RMS     Force            0.009557     0.000300     NO 
 Maximum Displacement     0.193492     0.001800     NO 
 RMS     Displacement     0.090048     0.001200     NO 
 Predicted change in Energy=-8.607793D-03
 GradGradGradGradGradGradGradGradGradGradGradGradGradGradGradGradGradGrad


 ----------------------------------------------------------------------

 Electric dipole moment (input orientation):
 (Debye = 10**-18 statcoulomb cm , SI units = C m)
                  (au)            (Debye)         (10**-30 SI)
   Tot        0.746437D+00      0.189725D+01      0.632856D+01
   x         -0.746437D+00     -0.189725D+01     -0.632856D+01
   y          0.000000D+00      0.000000D+00      0.000000D+00
   z          0.000000D+00      0.000000D+00      0.000000D+00

 Dipole polarizability, Alpha (input orientation).
 (esu units = cm**3 , SI units = C**2 m**2 J**-1)
 Alpha(0;0):
               (au)            (10**-24 esu)      (10**-40 SI)
   iso        0.194275D+02      0.287885D+01      0.320316D+01
   aniso      0.521896D+02      0.773369D+01      0.860490D+01
   xx         0.542205D+02      0.803465D+01      0.893975D+01
   yx         0.000000D+00      0.000000D+00      0.000000D+00
   yy         0.203095D+01      0.300956D+00      0.334858D+00
   zx         0.000000D+00      0.000000D+00      0.000000D+00
   zy         0.000000D+00      0.000000D+00      0.000000D+00
   zz         0.203095D+01      0.300956D+00      0.334858D+00

 ----------------------------------------------------------------------

 Dipole orientation:
     1          0.00000000          0.00000000          0.00000000
     1          0.00000001         -0.00000003          3.77945225
     9         -0.00000001          0.00000003         -4.15739747

 Electric dipole moment (dipole orientation):
 (Debye = 10**-18 statcoulomb cm , SI units = C m)
                  (au)            (Debye)         (10**-30 SI)
   Tot        0.746437D+00      0.189725D+01      0.632856D+01
   x          0.000000D+00      0.000000D+00      0.000000D+00
   y          0.000000D+00      0.000000D+00      0.000000D+00
   z          0.746437D+00      0.189725D+01      0.632856D+01

 Dipole polarizability, Alpha (dipole orientation).
 (esu units = cm**3 , SI units = C**2 m**2 J**-1)
 Alpha(0;0):
               (au)            (10**-24 esu)      (10**-40 SI)
   iso        0.194275D+02      0.287885D+01      0.320316D+01
   aniso      0.521896D+02      0.773369D+01      0.860490D+01
   xx         0.203095D+01      0.300956D+00      0.334858D+00
   yx         0.000000D+00      0.000000D+00      0.000000D+00
   yy         0.203095D+01      0.300956D+00      0.334858D+00
   zx         0.000000D+00      0.000000D+00      0.000000D+00
   zy         0.000000D+00      0.000000D+00      0.000000D+00
   zz         0.542205D+02      0.803465D+01      0.893975D+01

 ----------------------------------------------------------------------
 Unable to Open any file for archive entry.
 1\1\GINC-DESKTOP-B3RIHJD\Freq\UB3LYP\6-311G(d,p)\F1H2(2)\GARYX\22-Aug-
 2025\0\\# sp b3lyp/6-311g** Force nosymm scf=(qc)\\Title Card Required
 \\0,2\H,0.,0.,0.\H,-2.,0.,0.\F,2.2,0.,0.\\Version=ES64L-G16RevC.01\HF=
 -100.7904879\S2=1.287177\S2-1=0.\S2A=0.750955\RMSD=6.339e-09\RMSF=9.55
 7e-03\ZeroPoint=0.0027278\Thermal=0.0054096\ETot=-100.7850782\HTot=-10
 0.7841341\GTot=-100.808053\Dipole=-0.7464369,0.,0.\DipoleDeriv=-0.3809
 887,0.,0.,0.,0.105261,0.,0.,0.,0.105261,-0.0125712,0.,0.,0.,0.0388982,
 0.,0.,0.,0.0388982,0.3935599,0.,0.,0.,-0.1441592,0.,0.,0.,-0.1441592\P
 olar=54.2205054,0.,2.0309503,0.,0.,2.0309503\Quadrupole=-0.4646613,0.2
 323306,0.2323306,0.,0.,0.\PG=C*V [C*(H1H1F1)]\NImag=2\\-0.06036067,0.,
 0.01028269,0.,0.,0.01028269,0.03231086,0.,0.,-0.02902198,0.,-0.0053346
 5,0.,0.,0.00532280,0.,0.,-0.00533465,0.,0.,0.00532280,0.02804981,0.,0.
 ,-0.00328889,0.,0.,-0.02476092,0.,-0.00494804,0.,0.,0.00001185,0.,0.,0
 .00493619,0.,0.,-0.00494804,0.,0.,0.00001185,0.,0.,0.00493619\\-0.0004
 0365,0.,0.,-0.02006881,0.,0.,0.02047246,0.,0.\\\@
 The archive entry for this job was punched.


 COLLEGE PROFESSOR: SOMEONE WHO TALKS IN OTHER PEOPLE'S SLEEP.
 Job cpu time:       0 days  0 hours  0 minutes 18.5 seconds.
 Elapsed time:       0 days  0 hours  0 minutes  2.6 seconds.
 File lengths (MBytes):  RWF=      6 Int=      0 D2E=      0 Chk=      1 Scr=      1
 Normal termination of Gaussian 16 at Fri Aug 22 17:11:40 2025.
