 Entering Gaussian System, Link 0=g16
 Initial command:
 /home/garyx/gaussian/g16/l1.exe "/tmp/gaussian_scratch/Gau-481922.inp" -scrdir="/tmp/gaussian_scratch/"
 Entering Link 1 = /home/garyx/gaussian/g16/l1.exe PID=    481924.
  
 Copyright (c) 1988-2019, Gaussian, Inc.  All Rights Reserved.
  
 This is part of the Gaussian(R) 16 program.  It is based on
 the Gaussian(R) 09 system (copyright 2009, Gaussian, Inc.),
 the Gaussian(R) 03 system (copyright 2003, Gaussian, Inc.),
 the Gaussian(R) 98 system (copyright 1998, Gaussian, Inc.),
 the Gaussian(R) 94 system (copyright 1995, Gaussian, Inc.),
 the Gaussian 92(TM) system (copyright 1992, Gaussian, Inc.),
 the Gaussian 90(TM) system (copyright 1990, Gaussian, Inc.),
 the Gaussian 88(TM) system (copyright 1988, Gaussian, Inc.),
 the Gaussian 86(TM) system (copyright 1986, Carnegie Mellon
 University), and the Gaussian 82(TM) system (copyright 1983,
 Carnegie Mellon University). Gaussian is a federally registered
 trademark of Gaussian, Inc.
  
 This software contains proprietary and confidential information,
 including trade secrets, belonging to Gaussian, Inc.
  
 This software is provided under written license and may be
 used, copied, transmitted, or stored only in accord with that
 written license.
  
 The following legend is applicable only to US Government
 contracts under FAR:
  
                    RESTRICTED RIGHTS LEGEND
  
 Use, reproduction and disclosure by the US Government is
 subject to restrictions as set forth in subparagraphs (a)
 and (c) of the Commercial Computer Software - Restricted
 Rights clause in FAR 52.227-19.
  
 Gaussian, Inc.
 340 Quinnipiac St., Bldg. 40, Wallingford CT 06492
  
  
 ---------------------------------------------------------------
 Warning -- This program may not be used in any manner that
 competes with the business of Gaussian, Inc. or will provide
 assistance to any competitor of Gaussian, Inc.  The licensee
 of this program is prohibited from giving any competitor of
 Gaussian, Inc. access to this program.  By using this program,
 the user acknowledges that Gaussian, Inc. is engaged in the
 business of creating and licensing software in the field of
 computational chemistry and represents and warrants to the
 licensee that it is not a competitor of Gaussian, Inc. and that
 it will not use this program in any manner prohibited above.
 ---------------------------------------------------------------
  

 Cite this work as:
 Gaussian 16, Revision C.01,
 M. J. Frisch, G. W. Trucks, H. B. Schlegel, G. E. Scuseria, 
 M. A. Robb, J. R. Cheeseman, G. Scalmani, V. Barone, 
 G. A. Petersson, H. Nakatsuji, X. Li, M. Caricato, A. V. Marenich, 
 J. Bloino, B. G. Janesko, R. Gomperts, B. Mennucci, H. P. Hratchian, 
 J. V. Ortiz, A. F. Izmaylov, J. L. Sonnenberg, D. Williams-Young, 
 F. Ding, F. Lipparini, F. Egidi, J. Goings, B. Peng, A. Petrone, 
 T. Henderson, D. Ranasinghe, V. G. Zakrzewski, J. Gao, N. Rega, 
 G. Zheng, W. Liang, M. Hada, M. Ehara, K. Toyota, R. Fukuda, 
 J. Hasegawa, M. Ishida, T. Nakajima, Y. Honda, O. Kitao, H. Nakai, 
 T. Vreven, K. Throssell, J. A. Montgomery, Jr., J. E. Peralta, 
 F. Ogliaro, M. J. Bearpark, J. J. Heyd, E. N. Brothers, K. N. Kudin, 
 V. N. Staroverov, T. A. Keith, R. Kobayashi, J. Normand, 
 K. Raghavachari, A. P. Rendell, J. C. Burant, S. S. Iyengar, 
 J. Tomasi, M. Cossi, J. M. Millam, M. Klene, C. Adamo, R. Cammi, 
 J. W. Ochterski, R. L. Martin, K. Morokuma, O. Farkas, 
 J. B. Foresman, and D. J. Fox, Gaussian, Inc., Wallingford CT, 2019.
 
 ******************************************
 Gaussian 16:  ES64L-G16RevC.01  3-Jul-2019
                22-Aug-2025 
 ******************************************
 %mem=10GB
 %nprocs=8
 Will use up to    8 processors via shared memory.
 -----------------------------------------
 # sp b3lyp/6-311g** Force nosymm scf=(qc)
 -----------------------------------------
 1/10=4,30=1,38=1/1,3;
 2/12=2,15=1,17=6,18=5,40=1/2;
 3/5=4,6=6,7=101,11=2,25=1,30=1,71=2,74=-5,140=1/1,2,3;
 4//1;
 5/5=2,8=3,38=5,98=1/8;
 8/6=4,10=90,11=11/1;
 11/6=1,8=1,9=11,15=111,16=1,31=1/1,2,10;
 10/6=1,31=1/2;
 6/7=2,8=2,9=2,10=2,28=1/1;
 7/8=1,10=1,25=1,30=1/1,2,3,16;
 1/10=4,30=1/3;
 99//99;
 -------------------
 Title Card Required
 -------------------
 Symbolic Z-matrix:
 Charge =  0 Multiplicity = 2
 H                     0.        0.        0. 
 H                    -0.75      0.        0. 
 F                     2.1       0.        0. 
 

 GradGradGradGradGradGradGradGradGradGradGradGradGradGradGradGradGradGrad
 Berny optimization.
 Initialization pass.
 Trust Radius=3.00D-01 FncErr=1.00D-07 GrdErr=1.00D-07 EigMax=2.50D+02 EigMin=1.00D-04
 Number of steps in this run=      2 maximum allowed number of steps=      2.
 GradGradGradGradGradGradGradGradGradGradGradGradGradGradGradGradGradGrad

                          Input orientation:                          
 ---------------------------------------------------------------------
 Center     Atomic      Atomic             Coordinates (Angstroms)
 Number     Number       Type             X           Y           Z
 ---------------------------------------------------------------------
      1          1           0        0.000000    0.000000    0.000000
      2          1           0       -0.750000    0.000000    0.000000
      3          9           0        2.100000    0.000000    0.000000
 ---------------------------------------------------------------------
                    Distance matrix (angstroms):
                    1          2          3
     1  H    0.000000
     2  H    0.750000   0.000000
     3  F    2.100000   2.850000   0.000000
 Symmetry turned off by external request.
 Stoichiometry    FH2(2)
 Framework group  C*V[C*(HHF)]
 Deg. of freedom     2
 Full point group                 C*V     NOp   4
 Rotational constants (GHZ):           0.0000000          44.1523945          44.1523945
 Standard basis: 6-311G(d,p) (5D, 7F)
    30 basis functions,    48 primitive gaussians,    31 cartesian basis functions
     6 alpha electrons        5 beta electrons
       nuclear repulsion energy         4.6445578763 Hartrees.
 NAtoms=    3 NActive=    3 NUniq=    3 SFac= 1.00D+00 NAtFMM=   60 NAOKFM=F Big=F
 Integral buffers will be    131072 words long.
 Raffenetti 2 integral format.
 Two-electron integral symmetry is turned off.
 One-electron integrals computed using PRISM.
 NBasis=    30 RedAO= T EigKep=  1.51D-02  NBF=    30
 NBsUse=    30 1.00D-06 EigRej= -1.00D+00 NBFU=    30
 ExpMin= 1.03D-01 ExpMax= 1.14D+04 ExpMxC= 1.72D+03 IAcc=3 IRadAn=         5 AccDes= 0.00D+00
 Harris functional with IExCor=  402 and IRadAn=       5 diagonalized for initial guess.
 HarFok:  IExCor=  402 AccDes= 0.00D+00 IRadAn=         5 IDoV= 1 UseB2=F ITyADJ=14
 ICtDFT=  3500011 ScaDFX=  1.000000  1.000000  1.000000  1.000000
 FoFCou: FMM=F IPFlag=           0 FMFlag=      100000 FMFlg1=           0
         NFxFlg=           0 DoJE=T BraDBF=F KetDBF=T FulRan=T
         wScrn=  0.000000 ICntrl=       500 IOpCl=  0 I1Cent=   200000004 NGrid=           0
         NMat0=    1 NMatS0=      1 NMatT0=    0 NMatD0=    1 NMtDS0=    0 NMtDT0=    0
 Symmetry not used in FoFCou.
 Initial guess <Sx>= 0.0000 <Sy>= 0.0000 <Sz>= 0.5000 <S**2>= 0.7500 S= 0.5000
 Keep R1 and R2 ints in memory in canonical form, NReq=7127049.
 Gradient too large for Newton-Raphson -- use scaled steepest descent instead.
     Minimum is close to point  4 DX=  4.30D-02 DF= -1.53D-05 DXR=  4.56D-02 DFR=  2.10D-03 which will be used.
 Gradient too large for Newton-Raphson -- use scaled steepest descent instead.
     Minimum is close to point  3 DX=  5.93D-02 DF= -1.31D-06 DXR=  5.60D-02 DFR=  3.14D-03 which will be used.
 LinEq1:  Iter=  0 NonCon=     1 RMS=4.55D-04 Max=5.12D-03 NDo=     1
 AX will form     1 AO Fock derivatives at one time.
 LinEq1:  Iter=  1 NonCon=     1 RMS=1.67D-04 Max=1.08D-03 NDo=     1
 LinEq1:  Iter=  2 NonCon=     1 RMS=1.12D-04 Max=1.15D-03 NDo=     1
 LinEq1:  Iter=  3 NonCon=     1 RMS=1.60D-05 Max=1.13D-04 NDo=     1
 LinEq1:  Iter=  4 NonCon=     1 RMS=3.43D-06 Max=4.19D-05 NDo=     1
 LinEq1:  Iter=  5 NonCon=     1 RMS=8.83D-07 Max=9.27D-06 NDo=     1
 LinEq1:  Iter=  6 NonCon=     1 RMS=1.23D-07 Max=1.30D-06 NDo=     1
 LinEq1:  Iter=  7 NonCon=     1 RMS=1.29D-08 Max=1.60D-07 NDo=     1
 LinEq1:  Iter=  8 NonCon=     0 RMS=1.58D-09 Max=1.07D-08 NDo=     1
 Linear equations converged to 1.640D-09 1.640D-08 after     8 iterations.
     Accept linear search using points  1 and  2.
     Minimum is close to point  2 DX= -4.29D-04 DF= -6.66D-12 DXR=  4.29D-04 DFR=  1.84D-07 which will be used.
 LinEq1:  Iter=  0 NonCon=     1 RMS=2.31D-06 Max=3.06D-05 NDo=     1
 LinEq1:  Iter=  1 NonCon=     1 RMS=5.93D-07 Max=3.53D-06 NDo=     1
 LinEq1:  Iter=  2 NonCon=     1 RMS=1.69D-07 Max=1.56D-06 NDo=     1
 LinEq1:  Iter=  3 NonCon=     1 RMS=2.17D-08 Max=1.91D-07 NDo=     1
 LinEq1:  Iter=  4 NonCon=     1 RMS=5.81D-09 Max=6.85D-08 NDo=     1
 LinEq1:  Iter=  5 NonCon=     1 RMS=1.18D-09 Max=9.72D-09 NDo=     1
 LinEq1:  Iter=  6 NonCon=     0 RMS=1.45D-10 Max=7.91D-10 NDo=     1
 Linear equations converged to 2.403D-10 2.403D-09 after     6 iterations.
 SCF Done:  E(UB3LYP) =  -100.934508532     a.u. after    5 cycles
            Convg  =    0.5777D-08                    24 Fock formations.
              S**2 =  0.7515                  -V/T =  2.0018
 <Sx>= 0.0000 <Sy>= 0.0000 <Sz>= 0.5000 <S**2>= 0.7515 S= 0.5007
 <L.S>=  0.00000000000    
 Annihilation of the first spin contaminant:
 S**2 before annihilation     0.7515,   after     0.7500
 DoSCS=F DFT=T ScalE2(SS,OS)=  1.000000  1.000000
 Range of M.O.s used for correlation:     1    30
 NBasis=    30 NAE=     6 NBE=     5 NFC=     0 NFV=     0
 NROrb=     30 NOA=     6 NOB=     5 NVA=    24 NVB=    25
 Symmetrizing basis deriv contribution to polar:
 IMax=3 JMax=2 DiffMx= 0.00D+00
 G2DrvN: will do     4 centers at a time, making    1 passes.
 Calling FoFCou, ICntrl=  3107 FMM=F I1Cent=   0 AccDes= 0.00D+00.
 End of G2Drv F.D. properties file   721 does not exist.
 End of G2Drv F.D. properties file   722 does not exist.
 End of G2Drv F.D. properties file   788 does not exist.
          IDoAtm=111
          Differentiating once with respect to electric field.
                with respect to dipole field.
          Differentiating once with respect to nuclear coordinates.
 Keep R1 and R2 ints in memory in canonical form, NReq=7101505.
          There are    12 degrees of freedom in the 1st order CPHF.  IDoFFX=6 NUNeed=     3.
      9 vectors produced by pass  0 Test12= 2.24D-15 8.33D-09 XBig12= 3.35D+01 5.14D+00.
 AX will form     9 AO Fock derivatives at one time.
      9 vectors produced by pass  1 Test12= 2.24D-15 8.33D-09 XBig12= 7.14D-01 3.37D-01.
      9 vectors produced by pass  2 Test12= 2.24D-15 8.33D-09 XBig12= 1.09D-01 1.50D-01.
      9 vectors produced by pass  3 Test12= 2.24D-15 8.33D-09 XBig12= 1.47D-03 1.39D-02.
      7 vectors produced by pass  4 Test12= 2.24D-15 8.33D-09 XBig12= 4.35D-06 6.96D-04.
      5 vectors produced by pass  5 Test12= 2.24D-15 8.33D-09 XBig12= 3.93D-09 2.14D-05.
      2 vectors produced by pass  6 Test12= 2.24D-15 8.33D-09 XBig12= 4.50D-12 7.80D-07.
      1 vectors produced by pass  7 Test12= 2.24D-15 8.33D-09 XBig12= 9.01D-15 4.98D-08.
 InvSVY:  IOpt=1 It=  1 EMax= 1.75D-15
 Solved reduced A of dimension    51 with     9 vectors.
 Isotropic polarizability for W=    0.000000        6.94 Bohr**3.
 End of Minotr F.D. properties file   721 does not exist.
 End of Minotr F.D. properties file   722 does not exist.
 End of Minotr F.D. properties file   788 does not exist.

 **********************************************************************

            Population analysis using the SCF Density.

 **********************************************************************

 Alpha  occ. eigenvalues --  -24.75232  -1.21258  -0.54921  -0.45682  -0.45682
 Alpha  occ. eigenvalues --   -0.44340
 Alpha virt. eigenvalues --    0.06864   0.20298   0.45615   0.90836   0.90836
 Alpha virt. eigenvalues --    0.90840   1.07402   1.07402   1.14307   1.59598
 Alpha virt. eigenvalues --    1.81189   1.81189   1.95898   2.39610   3.27625
 Alpha virt. eigenvalues --    3.67060   3.68078   3.68078   3.74990   3.74990
 Alpha virt. eigenvalues --    5.94550   5.94550   5.95993  66.50263
  Beta  occ. eigenvalues --  -24.72170  -1.12509  -0.44527  -0.42625  -0.42625
  Beta virt. eigenvalues --   -0.25809   0.07585   0.20802   0.45988   0.92239
  Beta virt. eigenvalues --    0.92239   0.98884   1.07892   1.07892   1.18021
  Beta virt. eigenvalues --    1.60658   1.81447   1.81447   1.96320   2.40151
  Beta virt. eigenvalues --    3.28019   3.76575   3.76575   3.77580   3.77580
  Beta virt. eigenvalues --    3.80524   5.97140   5.97140   6.09507  66.53309
          Condensed to atoms (all electrons):
               1          2          3
     1  H    0.590164   0.402887   0.009756
     2  H    0.402887   0.572514  -0.002226
     3  F    0.009756  -0.002226   9.016488
          Atomic-Atomic Spin Densities.
               1          2          3
     1  H   -0.023972   0.006616  -0.003649
     2  H    0.006616   0.055968  -0.004539
     3  F   -0.003649  -0.004539   0.971148
 Mulliken charges and spin densities:
               1          2
     1  H   -0.002807  -0.021006
     2  H    0.026825   0.058046
     3  F   -0.024018   0.962960
 Sum of Mulliken charges =   0.00000   1.00000
 Mulliken charges and spin densities with hydrogens summed into heavy atoms:
               1          2
     3  F    0.000000   1.000000
 APT charges:
               1
     1  H   -0.132573
     2  H    0.087517
     3  F    0.045057
 Sum of APT charges =   0.00000
 APT charges with hydrogens summed into heavy atoms:
               1
     3  F    0.000000
 Electronic spatial extent (au):  <R**2>=            158.4333
 Charge=              0.0000 electrons
 Dipole moment (field-independent basis, Debye):
    X=             -0.3356    Y=              0.0000    Z=              0.0000  Tot=              0.3356
 Quadrupole moment (field-independent basis, Debye-Ang):
   XX=             -5.9101   YY=             -6.9236   ZZ=             -6.9236
   XY=              0.0000   XZ=              0.0000   YZ=              0.0000
 Traceless Quadrupole moment (field-independent basis, Debye-Ang):
   XX=              0.6756   YY=             -0.3378   ZZ=             -0.3378
   XY=              0.0000   XZ=              0.0000   YZ=              0.0000
 Octapole moment (field-independent basis, Debye-Ang**2):
  XXX=            -24.5749  YYY=              0.0000  ZZZ=              0.0000  XYY=             -9.4525
  XXY=              0.0000  XXZ=             -0.0000  XZZ=             -9.4525  YZZ=              0.0000
  YYZ=              0.0000  XYZ=              0.0000
 Hexadecapole moment (field-independent basis, Debye-Ang**3):
 XXXX=           -114.1090 YYYY=             -4.8589 ZZZZ=             -4.8589 XXXY=              0.0000
 XXXZ=             -0.0000 YYYX=              0.0000 YYYZ=              0.0000 ZZZX=              0.0000
 ZZZY=              0.0000 XXYY=            -23.3618 XXZZ=            -23.3618 YYZZ=             -1.6196
 XXYZ=              0.0000 YYXZ=              0.0000 ZZXY=              0.0000
 N-N= 4.644557876295D+00 E-N=-2.504572729107D+02  KE= 1.007511835515D+02
  Exact polarizability:      16.704      -0.000       2.061       0.000       0.000       2.061
 Approx polarizability:      18.250       0.000       2.124      -0.000      -0.000       2.124
                          Isotropic Fermi Contact Couplings
        Atom                 a.u.       MegaHertz       Gauss      10(-4) cm-1
     1  H(1)               0.00370      16.51904       5.89440       5.51016
     2  H(1)               0.02036      91.00025      32.47115      30.35442
     3  F(19)              0.03243     136.45780      48.69154      45.51742
 --------------------------------------------------------
       Center         ----  Spin Dipole Couplings  ----
                      3XX-RR        3YY-RR        3ZZ-RR
 --------------------------------------------------------
     1   Atom        0.054191     -0.027095     -0.027095
     2   Atom        0.017946     -0.008973     -0.008973
     3   Atom        6.111728     -3.055864     -3.055864
 --------------------------------------------------------
                        XY            XZ            YZ
 --------------------------------------------------------
     1   Atom       -0.000000      0.000000      0.000000
     2   Atom       -0.000000      0.000000      0.000000
     3   Atom        0.000000      0.000000      0.000000
 --------------------------------------------------------


 ---------------------------------------------------------------------------------
              Anisotropic Spin Dipole Couplings in Principal Axis System
 ---------------------------------------------------------------------------------

       Atom             a.u.   MegaHertz   Gauss  10(-4) cm-1        Axes

              Baa    -0.0271   -14.457    -5.159    -4.822  0.0000  0.0000  1.0000
     1 H(1)   Bbb    -0.0271   -14.457    -5.159    -4.822  0.0000  1.0000  0.0000
              Bcc     0.0542    28.914    10.317     9.645  1.0000 -0.0000 -0.0000
 
              Baa    -0.0090    -4.788    -1.708    -1.597  0.0000  1.0000  0.0000
     2 H(1)   Bbb    -0.0090    -4.788    -1.708    -1.597  0.0000  0.0000  1.0000
              Bcc     0.0179     9.575     3.417     3.194  1.0000 -0.0000 -0.0000
 
              Baa    -3.0559 -1534.733  -547.631  -511.932 -0.0000  1.0000 -0.0000
     3 F(19)  Bbb    -3.0559 -1534.733  -547.631  -511.932  0.0000  0.0000  1.0000
              Bcc     6.1117  3069.466  1095.262  1023.864  1.0000  0.0000  0.0000
 

 ---------------------------------------------------------------------------------

 Calling FoFJK, ICntrl=    100127 FMM=F ISym2X=0 I1Cent= 0 IOpClX= 1 NMat=1 NMatS=1 NMatT=0.
 Full mass-weighted force constant matrix:
 Low frequencies --- -305.1745 -305.1745 -176.2589   -0.0013   -0.0001    0.0002
 Low frequencies ---   69.1101   69.1101 4279.0334
 ******    3 imaginary frequencies (negative Signs) ****** 
 Diagonal vibrational polarizability:
       16.8075098       0.0710504       0.0710504
 Harmonic frequencies (cm**-1), IR intensities (KM/Mole), Raman scattering
 activities (A**4/AMU), depolarization ratios for plane and unpolarized
 incident light, reduced masses (AMU), force constants (mDyne/A),
 and normal coordinates:
                      1                      2                      3
                      A                      A                      A
 Frequencies --   -305.1487              -305.1487              -176.2589
 Red. masses --      1.0101                 1.0101                 1.1085
 Frc consts  --      0.0554                 0.0554                 0.0203
 IR Inten    --      0.2458                 0.2458                19.1032
  Atom  AN      X      Y      Z        X      Y      Z        X      Y      Z
     1   1     0.00   0.80   0.02    -0.00  -0.02   0.80     0.71  -0.00   0.00
     2   1     0.00  -0.59  -0.01    -0.00   0.01  -0.59     0.70   0.00  -0.00
     3   9    -0.00  -0.01  -0.00     0.00   0.00  -0.01    -0.07   0.00  -0.00
                      4
                      A
 Frequencies --   4279.0334
 Red. masses --      1.0078
 Frc consts  --     10.8725
 IR Inten    --    176.7896
  Atom  AN      X      Y      Z
     1   1    -0.70   0.00  -0.00
     2   1     0.71  -0.00   0.00
     3   9    -0.00  -0.00   0.00

 -------------------
 - Thermochemistry -
 -------------------
 Temperature   298.150 Kelvin.  Pressure   1.00000 Atm.
 Atom     1 has atomic number  1 and mass   1.00783
 Atom     2 has atomic number  1 and mass   1.00783
 Atom     3 has atomic number  9 and mass  18.99840
 Molecular mass:    21.01405 amu.
 Principal axes and moments of inertia in atomic units:
                           1         2         3
     Eigenvalues --     0.00000  40.87527  40.87527
           X            1.00000  -0.00000   0.00000
           Y            0.00000   1.00000   0.00000
           Z            0.00000   0.00000   1.00000
 This molecule is a prolate symmetric top.
 Rotational symmetry number  1.
 Rotational temperature (Kelvin)      2.11898
 Rotational constant (GHZ):          44.152394
    3 imaginary frequencies ignored.
 Zero-point vibrational energy      25594.3 (Joules/Mol)
                                    6.11719 (Kcal/Mol)
 Vibrational temperatures:   6156.57
          (Kelvin)
 
 Zero-point correction=                           0.009748 (Hartree/Particle)
 Thermal correction to Energy=                    0.012109
 Thermal correction to Enthalpy=                  0.013053
 Thermal correction to Gibbs Free Energy=        -0.009878
 Sum of electronic and zero-point Energies=           -100.924760
 Sum of electronic and thermal Energies=              -100.922400
 Sum of electronic and thermal Enthalpies=            -100.921456
 Sum of electronic and thermal Free Energies=         -100.944387
 
                     E (Thermal)             CV                S
                      KCal/Mol        Cal/Mol-Kelvin    Cal/Mol-Kelvin
 Total                    7.598              4.968             48.263
 Electronic               0.000              0.000              1.377
 Translational            0.889              2.981             35.068
 Rotational               0.592              1.987             11.817
 Vibrational              6.117              0.000              0.000
                       Q            Log10(Q)             Ln(Q)
 Total Bot       0.349646D+05          4.543628         10.462091
 Total V=0       0.106551D+10          9.027556         20.786717
 Vib (Bot)       0.328150D-04         -4.483928        -10.324626
 Vib (V=0)       0.100000D+01          0.000000          0.000000
 Electronic      0.200000D+01          0.301030          0.693147
 Translational   0.378633D+07          6.578219         15.146908
 Rotational      0.140704D+03          2.148308          4.946661
 -------------------------------------------------------------------
 Center     Atomic                   Forces (Hartrees/Bohr)
 Number     Number              X              Y              Z
 -------------------------------------------------------------------
      1        1           0.000638968   -0.000000000   -0.000000000
      2        1           0.000953038    0.000000000   -0.000000000
      3        9          -0.001592007    0.000000000    0.000000000
 -------------------------------------------------------------------
 Cartesian Forces:  Max     0.001592007 RMS     0.000654136

 GradGradGradGradGradGradGradGradGradGradGradGradGradGradGradGradGradGrad
 Berny optimization.
 Search for a local minimum.
 Step number   1 out of a maximum of    2
 All quantities printed in internal units (Hartrees-Bohrs-Radians)
 Second derivative matrix not updated -- analytic derivatives used.
 The second derivative matrix:
                          X1        Y1        Z1        X2        Y2
           X1           0.34190
           Y1          -0.00000  -0.00220
           Z1           0.00000  -0.00000  -0.00220
           X2          -0.34964   0.00000  -0.00000   0.35537
           Y2           0.00000   0.00178   0.00000  -0.00000  -0.00118
           Z2          -0.00000   0.00000   0.00178   0.00000  -0.00000
           X3           0.00774   0.00000  -0.00000  -0.00573  -0.00000
           Y3           0.00000   0.00041  -0.00000  -0.00000  -0.00060
           Z3          -0.00000  -0.00000   0.00041   0.00000   0.00000
                          Z2        X3        Y3        Z3
           Z2          -0.00118
           X3           0.00000  -0.00201
           Y3           0.00000   0.00000   0.00019
           Z3          -0.00060  -0.00000  -0.00000   0.00019
 ITU=  0
     Eigenvalues ---   -0.00362  -0.00362  -0.00243   0.69842
 Eigenvalue     1 is  -3.62D-03 should be greater than     0.000000 Eigenvector:
                          Y1        Y2        Y3        Z1        Z2
   1                    0.80294  -0.59164  -0.07043   0.01386  -0.01021
                          Z3        X1        X2        X3
   1                   -0.00122   0.00000   0.00000  -0.00000
 Eigenvalue     2 is  -3.62D-03 should be greater than     0.000000 Eigenvector:
                          Z1        Z2        Z3        Y1        Y2
   1                    0.80294  -0.59164  -0.07043  -0.01386   0.01021
                          Y3        X1        X2        X3
   1                    0.00122  -0.00000  -0.00000   0.00000
 Eigenvalue     3 is  -2.43D-03 should be greater than     0.000000 Eigenvector:
                          X1        X2        X3        Y1        Z1
   1                    0.64978   0.62929  -0.42636  -0.00000   0.00000
                          Y2        Z2        Y3        Z3
   1                    0.00000  -0.00000   0.00000  -0.00000
 Quadratic step=6.957D-01 exceeds max=3.000D-01 adjusted using Lamda=-3.207D-03.
 Angle between NR and scaled steps=   0.04 degrees.
 Angle between quadratic step and forces=  30.32 degrees.
 Linear search not attempted -- first point.
 B after Tr=    -0.085339    0.000000    0.000000
         Rot=    0.991113   -0.133024   -0.000000   -0.000000 Ang= -15.29 deg.
 Variable       Old X    -DE/DX   Delta X   Delta X   Delta X     New X
                                 (Linear)    (Quad)   (Total)
    X1        0.00000   0.00064   0.00000   0.19484   0.10950   0.10950
    Y1        0.00000  -0.00000   0.00000  -0.00000  -0.00000  -0.00000
    Z1        0.00000  -0.00000   0.00000   0.00000  -0.00000  -0.00000
    X2       -1.41729   0.00095   0.00000   0.18918   0.10385  -1.31345
    Y2        0.00000   0.00000   0.00000   0.00000   0.00000   0.00000
    Z2        0.00000  -0.00000   0.00000  -0.00000   0.00000   0.00000
    X3        3.96842  -0.00159   0.00000  -0.12801  -0.21335   3.75508
    Y3        0.00000   0.00000   0.00000   0.00000   0.00000   0.00000
    Z3        0.00000   0.00000   0.00000  -0.00000   0.00000   0.00000
         Item               Value     Threshold  Converged?
 Maximum Force            0.001592     0.000450     NO 
 RMS     Force            0.000654     0.000300     NO 
 Maximum Displacement     0.213347     0.001800     NO 
 RMS     Displacement     0.087109     0.001200     NO 
 Predicted change in Energy=-6.182587D-04
 GradGradGradGradGradGradGradGradGradGradGradGradGradGradGradGradGradGrad


 ----------------------------------------------------------------------

 Electric dipole moment (input orientation):
 (Debye = 10**-18 statcoulomb cm , SI units = C m)
                  (au)            (Debye)         (10**-30 SI)
   Tot        0.132037D+00      0.335606D+00      0.111946D+01
   x         -0.132037D+00     -0.335606D+00     -0.111946D+01
   y          0.000000D+00      0.000000D+00      0.000000D+00
   z          0.000000D+00      0.000000D+00      0.000000D+00

 Dipole polarizability, Alpha (input orientation).
 (esu units = cm**3 , SI units = C**2 m**2 J**-1)
 Alpha(0;0):
               (au)            (10**-24 esu)      (10**-40 SI)
   iso        0.694211D+01      0.102872D+01      0.114460D+01
   aniso      0.146424D+02      0.216978D+01      0.241420D+01
   xx         0.167037D+02      0.247523D+01      0.275407D+01
   yx         0.000000D+00      0.000000D+00      0.000000D+00
   yy         0.206132D+01      0.305457D+00      0.339866D+00
   zx         0.000000D+00      0.000000D+00      0.000000D+00
   zy         0.000000D+00      0.000000D+00      0.000000D+00
   zz         0.206132D+01      0.305457D+00      0.339866D+00

 ----------------------------------------------------------------------

 Dipole orientation:
     1          0.00000000          0.00000000          0.00000000
     1         -0.00000000         -0.00000000          1.41729459
     9          0.00000000          0.00000000         -3.96842486

 Electric dipole moment (dipole orientation):
 (Debye = 10**-18 statcoulomb cm , SI units = C m)
                  (au)            (Debye)         (10**-30 SI)
   Tot        0.132037D+00      0.335606D+00      0.111946D+01
   x          0.000000D+00      0.000000D+00      0.000000D+00
   y          0.000000D+00      0.000000D+00      0.000000D+00
   z          0.132037D+00      0.335606D+00      0.111946D+01

 Dipole polarizability, Alpha (dipole orientation).
 (esu units = cm**3 , SI units = C**2 m**2 J**-1)
 Alpha(0;0):
               (au)            (10**-24 esu)      (10**-40 SI)
   iso        0.694211D+01      0.102872D+01      0.114460D+01
   aniso      0.146424D+02      0.216978D+01      0.241420D+01
   xx         0.206132D+01      0.305457D+00      0.339866D+00
   yx         0.000000D+00      0.000000D+00      0.000000D+00
   yy         0.206132D+01      0.305457D+00      0.339866D+00
   zx         0.000000D+00      0.000000D+00      0.000000D+00
   zy         0.000000D+00      0.000000D+00      0.000000D+00
   zz         0.167037D+02      0.247523D+01      0.275407D+01

 ----------------------------------------------------------------------
 Unable to Open any file for archive entry.
 1\1\GINC-DESKTOP-B3RIHJD\Freq\UB3LYP\6-311G(d,p)\F1H2(2)\GARYX\22-Aug-
 2025\0\\# sp b3lyp/6-311g** Force nosymm scf=(qc)\\Title Card Required
 \\0,2\H,0.,0.,0.\H,-0.75,0.,0.\F,2.1,0.,0.\\Version=ES64L-G16RevC.01\H
 F=-100.9345085\S2=0.751455\S2-1=0.\S2A=0.750002\RMSD=3.522e-10\RMSF=6.
 541e-04\ZeroPoint=0.0097484\Thermal=0.0121088\ETot=-100.9223997\HTot=-
 100.9214555\GTot=-100.9443867\Dipole=-0.1320375,0.,0.\DipoleDeriv=-0.3
 948539,0.,0.,0.,-0.0014329,0.,0.,0.,-0.0014329,0.2117169,0.,0.,0.,0.02
 54165,0.,0.,0.,0.0254165,0.183137,0.,0.,0.,-0.0239835,0.,0.,0.,-0.0239
 835\Polar=16.703693,0.,2.0613238,0.,0.,2.0613238\Quadrupole=0.5023087,
 -0.2511543,-0.2511543,0.,0.,0.\PG=C*V [C*(H1H1F1)]\NImag=3\\0.34189643
 ,0.,-0.00219870,0.,0.,-0.00219870,-0.34963814,0.,0.,0.35536708,0.,0.00
 178378,0.,0.,-0.00118109,0.,0.,0.00178378,0.,0.,-0.00118109,0.00774170
 ,0.,0.,-0.00572894,0.,0.,-0.00201276,0.,0.00041493,0.,0.,-0.00060268,0
 .,0.,0.00018775,0.,0.,0.00041493,0.,0.,-0.00060268,0.,0.,0.00018775\\-
 0.00063897,0.,0.,-0.00095304,0.,0.,0.00159201,0.,0.\\\@
 The archive entry for this job was punched.


 K N O W I N G  IS A BARRIER WHICH PREVENTS LEARNING

                     -- TEACHING OF THE BENE GESSERIT
 Job cpu time:       0 days  0 hours  0 minutes 13.9 seconds.
 Elapsed time:       0 days  0 hours  0 minutes  2.0 seconds.
 File lengths (MBytes):  RWF=      6 Int=      0 D2E=      0 Chk=      1 Scr=      1
 Normal termination of Gaussian 16 at Fri Aug 22 17:02:42 2025.
