 Entering Gaussian System, Link 0=g16
 Initial command:
 /home/garyx/gaussian/g16/l1.exe "/tmp/gaussian_scratch/Gau-1027013.inp" -scrdir="/tmp/gaussian_scratch/"
 Entering Link 1 = /home/garyx/gaussian/g16/l1.exe PID=   1027015.
  
 Copyright (c) 1988-2019, Gaussian, Inc.  All Rights Reserved.
  
 This is part of the Gaussian(R) 16 program.  It is based on
 the Gaussian(R) 09 system (copyright 2009, Gaussian, Inc.),
 the Gaussian(R) 03 system (copyright 2003, Gaussian, Inc.),
 the Gaussian(R) 98 system (copyright 1998, Gaussian, Inc.),
 the Gaussian(R) 94 system (copyright 1995, Gaussian, Inc.),
 the Gaussian 92(TM) system (copyright 1992, Gaussian, Inc.),
 the Gaussian 90(TM) system (copyright 1990, Gaussian, Inc.),
 the Gaussian 88(TM) system (copyright 1988, Gaussian, Inc.),
 the Gaussian 86(TM) system (copyright 1986, Carnegie Mellon
 University), and the Gaussian 82(TM) system (copyright 1983,
 Carnegie Mellon University). Gaussian is a federally registered
 trademark of Gaussian, Inc.
  
 This software contains proprietary and confidential information,
 including trade secrets, belonging to Gaussian, Inc.
  
 This software is provided under written license and may be
 used, copied, transmitted, or stored only in accord with that
 written license.
  
 The following legend is applicable only to US Government
 contracts under FAR:
  
                    RESTRICTED RIGHTS LEGEND
  
 Use, reproduction and disclosure by the US Government is
 subject to restrictions as set forth in subparagraphs (a)
 and (c) of the Commercial Computer Software - Restricted
 Rights clause in FAR 52.227-19.
  
 Gaussian, Inc.
 340 Quinnipiac St., Bldg. 40, Wallingford CT 06492
  
  
 ---------------------------------------------------------------
 Warning -- This program may not be used in any manner that
 competes with the business of Gaussian, Inc. or will provide
 assistance to any competitor of Gaussian, Inc.  The licensee
 of this program is prohibited from giving any competitor of
 Gaussian, Inc. access to this program.  By using this program,
 the user acknowledges that Gaussian, Inc. is engaged in the
 business of creating and licensing software in the field of
 computational chemistry and represents and warrants to the
 licensee that it is not a competitor of Gaussian, Inc. and that
 it will not use this program in any manner prohibited above.
 ---------------------------------------------------------------
  

 Cite this work as:
 Gaussian 16, Revision C.01,
 M. J. Frisch, G. W. Trucks, H. B. Schlegel, G. E. Scuseria, 
 M. A. Robb, J. R. Cheeseman, G. Scalmani, V. Barone, 
 G. A. Petersson, H. Nakatsuji, X. Li, M. Caricato, A. V. Marenich, 
 J. Bloino, B. G. Janesko, R. Gomperts, B. Mennucci, H. P. Hratchian, 
 J. V. Ortiz, A. F. Izmaylov, J. L. Sonnenberg, D. Williams-Young, 
 F. Ding, F. Lipparini, F. Egidi, J. Goings, B. Peng, A. Petrone, 
 T. Henderson, D. Ranasinghe, V. G. Zakrzewski, J. Gao, N. Rega, 
 G. Zheng, W. Liang, M. Hada, M. Ehara, K. Toyota, R. Fukuda, 
 J. Hasegawa, M. Ishida, T. Nakajima, Y. Honda, O. Kitao, H. Nakai, 
 T. Vreven, K. Throssell, J. A. Montgomery, Jr., J. E. Peralta, 
 F. Ogliaro, M. J. Bearpark, J. J. Heyd, E. N. Brothers, K. N. Kudin, 
 V. N. Staroverov, T. A. Keith, R. Kobayashi, J. Normand, 
 K. Raghavachari, A. P. Rendell, J. C. Burant, S. S. Iyengar, 
 J. Tomasi, M. Cossi, J. M. Millam, M. Klene, C. Adamo, R. Cammi, 
 J. W. Ochterski, R. L. Martin, K. Morokuma, O. Farkas, 
 J. B. Foresman, and D. J. Fox, Gaussian, Inc., Wallingford CT, 2019.
 
 ******************************************
 Gaussian 16:  ES64L-G16RevC.01  3-Jul-2019
                22-Aug-2025 
 ******************************************
 %mem=10GB
 %nprocs=8
 Will use up to    8 processors via shared memory.
 -----------------------------------------
 # sp b3lyp/6-311g** Force nosymm scf=(qc)
 -----------------------------------------
 1/10=4,30=1,38=1/1,3;
 2/12=2,15=1,17=6,18=5,40=1/2;
 3/5=4,6=6,7=101,11=2,25=1,30=1,71=2,74=-5,140=1/1,2,3;
 4//1;
 5/5=2,8=3,38=5,98=1/8;
 8/6=4,10=90,11=11/1;
 11/6=1,8=1,9=11,15=111,16=1,31=1/1,2,10;
 10/6=1,31=1/2;
 6/7=2,8=2,9=2,10=2,28=1/1;
 7/8=1,10=1,25=1,30=1/1,2,3,16;
 1/10=4,30=1/3;
 99//99;
 -------------------
 Title Card Required
 -------------------
 Symbolic Z-matrix:
 Charge =  0 Multiplicity = 2
 H                     0.        0.        0. 
 H                    -3.65      0.        0. 
 F                     3.6       0.        0. 
 

 GradGradGradGradGradGradGradGradGradGradGradGradGradGradGradGradGradGrad
 Berny optimization.
 Initialization pass.
 Trust Radius=3.00D-01 FncErr=1.00D-07 GrdErr=1.00D-07 EigMax=2.50D+02 EigMin=1.00D-04
 Number of steps in this run=      2 maximum allowed number of steps=      2.
 GradGradGradGradGradGradGradGradGradGradGradGradGradGradGradGradGradGrad

                          Input orientation:                          
 ---------------------------------------------------------------------
 Center     Atomic      Atomic             Coordinates (Angstroms)
 Number     Number       Type             X           Y           Z
 ---------------------------------------------------------------------
      1          1           0        0.000000    0.000000    0.000000
      2          1           0       -3.650000    0.000000    0.000000
      3          9           0        3.600000    0.000000    0.000000
 ---------------------------------------------------------------------
                    Distance matrix (angstroms):
                    1          2          3
     1  H    0.000000
     2  H    3.650000   0.000000
     3  F    3.600000   7.250000   0.000000
 Symmetry turned off by external request.
 Stoichiometry    FH2(2)
 Framework group  C*V[C*(HHF)]
 Deg. of freedom     2
 Full point group                 C*V     NOp   4
 Rotational constants (GHZ):           0.0000000           8.3748122           8.3748122
 Standard basis: 6-311G(d,p) (5D, 7F)
    30 basis functions,    48 primitive gaussians,    31 cartesian basis functions
     6 alpha electrons        5 beta electrons
       nuclear repulsion energy         2.1248327262 Hartrees.
 NAtoms=    3 NActive=    3 NUniq=    3 SFac= 1.00D+00 NAtFMM=   60 NAOKFM=F Big=F
 Integral buffers will be    131072 words long.
 Raffenetti 2 integral format.
 Two-electron integral symmetry is turned off.
 One-electron integrals computed using PRISM.
 NBasis=    30 RedAO= T EigKep=  8.91D-02  NBF=    30
 NBsUse=    30 1.00D-06 EigRej= -1.00D+00 NBFU=    30
 ExpMin= 1.03D-01 ExpMax= 1.14D+04 ExpMxC= 1.72D+03 IAcc=3 IRadAn=         5 AccDes= 0.00D+00
 Harris functional with IExCor=  402 and IRadAn=       5 diagonalized for initial guess.
 HarFok:  IExCor=  402 AccDes= 0.00D+00 IRadAn=         5 IDoV= 1 UseB2=F ITyADJ=14
 ICtDFT=  3500011 ScaDFX=  1.000000  1.000000  1.000000  1.000000
 FoFCou: FMM=F IPFlag=           0 FMFlag=      100000 FMFlg1=           0
         NFxFlg=           0 DoJE=T BraDBF=F KetDBF=T FulRan=T
         wScrn=  0.000000 ICntrl=       500 IOpCl=  0 I1Cent=   200000004 NGrid=           0
         NMat0=    1 NMatS0=      1 NMatT0=    0 NMatD0=    1 NMtDS0=    0 NMtDT0=    0
 Symmetry not used in FoFCou.
 Initial guess <Sx>= 0.0000 <Sy>= 0.0000 <Sz>= 0.5000 <S**2>= 0.7500 S= 0.5000
 Keep R1 and R2 ints in memory in canonical form, NReq=7127049.
 Gradient too large for Newton-Raphson -- use scaled steepest descent instead.
  Beta Gap=    -0.531 HL deriv= 2.45D-16 Rot set to   3.57D-01
     Minimum is close to point  3 DX=  3.81D-02 DF= -1.05D-03 DXR=  8.70D-02 DFR=  8.08D-03 which will be used.
 Gradient too large for Newton-Raphson -- use scaled steepest descent instead.
     Accept linear search using points  4 and  5.
 Gradient too large for Newton-Raphson -- use scaled steepest descent instead.
 Gradient too large for Newton-Raphson -- use scaled steepest descent instead.
 Gradient too large for Newton-Raphson -- use scaled steepest descent instead.
 Gradient too large for Newton-Raphson -- use scaled steepest descent instead.
     Accept linear search using points  1 and  2.
 Gradient too large for Newton-Raphson -- use scaled steepest descent instead.
     Accept linear search using points  2 and  3.
 Gradient too large for Newton-Raphson -- use scaled steepest descent instead.
 Gradient too large for Newton-Raphson -- use scaled steepest descent instead.
 Gradient too large for Newton-Raphson -- use scaled steepest descent instead.
     Accept linear search using points  2 and  3.
 Gradient too large for Newton-Raphson -- use scaled steepest descent instead.
     Accept linear search using points  1 and  2.
 Gradient too large for Newton-Raphson -- use scaled steepest descent instead.
     Minimum is close to point  3 DX=  1.08D-01 DF= -3.40D-05 DXR=  9.78D-02 DFR=  8.95D-03 which will be used.
 Gradient too large for Newton-Raphson -- use scaled steepest descent instead.
     Accept linear search using points  1 and  2.
 LinEq1:  Iter=  0 NonCon=     1 RMS=4.35D-03 Max=6.96D-02 NDo=     1
 AX will form     1 AO Fock derivatives at one time.
 LinEq1:  Iter=  1 NonCon=     1 RMS=6.07D-04 Max=3.89D-03 NDo=     1
 LinEq1:  Iter=  2 NonCon=     1 RMS=2.25D-04 Max=2.49D-03 NDo=     1
 LinEq1:  Iter=  3 NonCon=     1 RMS=9.71D-05 Max=1.35D-03 NDo=     1
 LinEq1:  Iter=  4 NonCon=     1 RMS=1.92D-05 Max=1.90D-04 NDo=     1
 LinEq1:  Iter=  5 NonCon=     1 RMS=1.13D-06 Max=8.47D-06 NDo=     1
 LinEq1:  Iter=  6 NonCon=     1 RMS=1.93D-07 Max=2.23D-06 NDo=     1
 LinEq1:  Iter=  7 NonCon=     1 RMS=3.52D-08 Max=2.24D-07 NDo=     1
 LinEq1:  Iter=  8 NonCon=     1 RMS=4.62D-09 Max=2.48D-08 NDo=     1
 LinEq1:  Iter=  9 NonCon=     1 RMS=1.49D-09 Max=2.12D-08 NDo=     1
 LinEq1:  Iter= 10 NonCon=     0 RMS=5.99D-10 Max=3.87D-09 NDo=     1
 Linear equations converged to 1.640D-09 1.640D-08 after    10 iterations.
     Minimum is close to point  2 DX=  5.37D-03 DF= -1.27D-08 DXR=  5.34D-03 DFR=  2.85D-05 which will be used.
 Gradient too large for Newton-Raphson -- use scaled steepest descent instead.
 LinEq1:  Iter=  0 NonCon=     1 RMS=8.58D-04 Max=1.37D-02 NDo=     1
 LinEq1:  Iter=  1 NonCon=     1 RMS=2.67D-04 Max=1.84D-03 NDo=     1
 LinEq1:  Iter=  2 NonCon=     1 RMS=1.08D-05 Max=1.26D-04 NDo=     1
 LinEq1:  Iter=  3 NonCon=     1 RMS=4.75D-06 Max=5.43D-05 NDo=     1
 LinEq1:  Iter=  4 NonCon=     1 RMS=4.61D-07 Max=4.53D-06 NDo=     1
 LinEq1:  Iter=  5 NonCon=     1 RMS=3.73D-08 Max=3.16D-07 NDo=     1
 LinEq1:  Iter=  6 NonCon=     1 RMS=6.95D-09 Max=4.22D-08 NDo=     1
 LinEq1:  Iter=  7 NonCon=     0 RMS=1.20D-09 Max=1.35D-08 NDo=     1
 Linear equations converged to 1.640D-09 1.640D-08 after     7 iterations.
     Accept linear search using points  1 and  2.
     Minimum is close to point  2 DX= -3.25D-02 DF= -3.46D-08 DXR=  3.36D-02 DFR=  1.16D-03 which will be used.
 LinEq1:  Iter=  0 NonCon=     1 RMS=3.11D-05 Max=4.61D-04 NDo=     1
 LinEq1:  Iter=  1 NonCon=     1 RMS=1.15D-05 Max=7.94D-05 NDo=     1
 LinEq1:  Iter=  2 NonCon=     1 RMS=3.88D-06 Max=2.79D-05 NDo=     1
 LinEq1:  Iter=  3 NonCon=     1 RMS=1.06D-06 Max=1.63D-05 NDo=     1
 LinEq1:  Iter=  4 NonCon=     1 RMS=2.38D-07 Max=1.83D-06 NDo=     1
 LinEq1:  Iter=  5 NonCon=     1 RMS=4.36D-08 Max=5.01D-07 NDo=     1
 LinEq1:  Iter=  6 NonCon=     1 RMS=5.22D-09 Max=4.13D-08 NDo=     1
 LinEq1:  Iter=  7 NonCon=     0 RMS=9.53D-10 Max=5.12D-09 NDo=     1
 Linear equations converged to 1.640D-09 1.640D-08 after     7 iterations.
     Minimum is close to point  2 DX=  1.04D-01 DF= -6.78D-10 DXR=  9.46D-02 DFR=  9.02D-03 which will be used.
 LinEq1:  Iter=  0 NonCon=     1 RMS=5.36D-07 Max=4.20D-06 NDo=     1
 LinEq1:  Iter=  1 NonCon=     1 RMS=1.57D-07 Max=1.88D-06 NDo=     1
 LinEq1:  Iter=  2 NonCon=     1 RMS=7.86D-08 Max=7.58D-07 NDo=     1
 LinEq1:  Iter=  3 NonCon=     1 RMS=1.23D-08 Max=1.42D-07 NDo=     1
 LinEq1:  Iter=  4 NonCon=     1 RMS=2.98D-09 Max=2.27D-08 NDo=     1
 LinEq1:  Iter=  5 NonCon=     1 RMS=7.27D-10 Max=5.49D-09 NDo=     1
 LinEq1:  Iter=  6 NonCon=     1 RMS=4.10D-10 Max=3.94D-09 NDo=     1
 LinEq1:  Iter=  7 NonCon=     0 RMS=1.32D-10 Max=1.34D-09 NDo=     1
 Linear equations converged to 2.843D-10 2.843D-09 after     7 iterations.
 Incorrect curvature in search direction -- initial direction reversed.
     Note:  rotation exceeds Pi/2.
     Note:  rotation exceeds Pi/2.
     Note:  rotation exceeds Pi/2.
     Note:  rotation exceeds Pi/2.
     Minimum is close to point  8 DX=  0.00D+00 DF=  0.00D+00 DXR=  0.00D+00 DFR=  0.00D+00 which will be used.
 LinEq1:  Iter=  0 NonCon=     1 RMS=4.04D-05 Max=3.58D-04 NDo=     1
 LinEq1:  Iter=  1 NonCon=     1 RMS=1.04D-05 Max=1.25D-04 NDo=     1
 LinEq1:  Iter=  2 NonCon=     1 RMS=5.75D-06 Max=6.04D-05 NDo=     1
 LinEq1:  Iter=  3 NonCon=     1 RMS=1.64D-06 Max=1.30D-05 NDo=     1
 LinEq1:  Iter=  4 NonCon=     1 RMS=6.66D-07 Max=5.65D-06 NDo=     1
 LinEq1:  Iter=  5 NonCon=     1 RMS=1.08D-07 Max=7.22D-07 NDo=     1
 LinEq1:  Iter=  6 NonCon=     1 RMS=2.99D-08 Max=2.28D-07 NDo=     1
 LinEq1:  Iter=  7 NonCon=     1 RMS=5.92D-09 Max=7.77D-08 NDo=     1
 LinEq1:  Iter=  8 NonCon=     0 RMS=5.44D-10 Max=5.01D-09 NDo=     1
 Linear equations converged to 1.640D-09 1.640D-08 after     8 iterations.
 Incorrect curvature in search direction -- initial direction reversed.
 LinEq1:  Iter=  0 NonCon=     1 RMS=8.08D-05 Max=7.46D-04 NDo=     1
 LinEq1:  Iter=  1 NonCon=     1 RMS=2.07D-05 Max=2.56D-04 NDo=     1
 LinEq1:  Iter=  2 NonCon=     1 RMS=1.18D-05 Max=1.18D-04 NDo=     1
 LinEq1:  Iter=  3 NonCon=     1 RMS=4.03D-06 Max=3.43D-05 NDo=     1
 LinEq1:  Iter=  4 NonCon=     1 RMS=1.29D-06 Max=9.84D-06 NDo=     1
 LinEq1:  Iter=  5 NonCon=     1 RMS=1.69D-07 Max=1.47D-06 NDo=     1
 LinEq1:  Iter=  6 NonCon=     1 RMS=2.70D-08 Max=2.71D-07 NDo=     1
 LinEq1:  Iter=  7 NonCon=     1 RMS=1.09D-08 Max=1.18D-07 NDo=     1
 LinEq1:  Iter=  8 NonCon=     0 RMS=1.48D-09 Max=1.58D-08 NDo=     1
 Linear equations converged to 1.640D-09 1.640D-08 after     8 iterations.
 Incorrect curvature in search direction -- initial direction reversed.
 LinEq1:  Iter=  0 NonCon=     1 RMS=1.12D-04 Max=1.04D-03 NDo=     1
 LinEq1:  Iter=  1 NonCon=     1 RMS=3.02D-05 Max=3.99D-04 NDo=     1
 LinEq1:  Iter=  2 NonCon=     1 RMS=1.70D-05 Max=1.55D-04 NDo=     1
 LinEq1:  Iter=  3 NonCon=     1 RMS=6.71D-06 Max=5.69D-05 NDo=     1
 LinEq1:  Iter=  4 NonCon=     1 RMS=1.74D-06 Max=1.14D-05 NDo=     1
 LinEq1:  Iter=  5 NonCon=     1 RMS=3.08D-07 Max=2.65D-06 NDo=     1
 LinEq1:  Iter=  6 NonCon=     1 RMS=8.38D-08 Max=8.24D-07 NDo=     1
 LinEq1:  Iter=  7 NonCon=     1 RMS=1.92D-08 Max=1.39D-07 NDo=     1
 LinEq1:  Iter=  8 NonCon=     1 RMS=2.50D-09 Max=2.96D-08 NDo=     1
 LinEq1:  Iter=  9 NonCon=     0 RMS=1.16D-09 Max=1.28D-08 NDo=     1
 Linear equations converged to 1.640D-09 1.640D-08 after     9 iterations.
     Minimum is close to point  5 DX=  6.98D-04 DF= -3.03D-09 DXR=  6.93D-03 DFR=  1.23D-04 which will be used.
 Gradient too large for Newton-Raphson -- use scaled steepest descent instead.
 LinEq1:  Iter=  0 NonCon=     1 RMS=5.02D-05 Max=7.16D-04 NDo=     1
 LinEq1:  Iter=  1 NonCon=     1 RMS=2.96D-05 Max=2.14D-04 NDo=     1
 LinEq1:  Iter=  2 NonCon=     1 RMS=1.92D-05 Max=2.16D-04 NDo=     1
 LinEq1:  Iter=  3 NonCon=     1 RMS=4.72D-06 Max=3.78D-05 NDo=     1
 LinEq1:  Iter=  4 NonCon=     1 RMS=1.15D-06 Max=9.60D-06 NDo=     1
 LinEq1:  Iter=  5 NonCon=     1 RMS=2.78D-07 Max=2.90D-06 NDo=     1
 LinEq1:  Iter=  6 NonCon=     1 RMS=3.20D-08 Max=1.47D-07 NDo=     1
 LinEq1:  Iter=  7 NonCon=     1 RMS=4.02D-09 Max=2.19D-08 NDo=     1
 LinEq1:  Iter=  8 NonCon=     0 RMS=6.92D-10 Max=1.07D-08 NDo=     1
 Linear equations converged to 1.640D-09 1.640D-08 after     8 iterations.
 Incorrect curvature in search direction -- initial direction reversed.
 LinEq1:  Iter=  0 NonCon=     1 RMS=9.05D-05 Max=6.81D-04 NDo=     1
 LinEq1:  Iter=  1 NonCon=     1 RMS=4.32D-05 Max=5.60D-04 NDo=     1
 LinEq1:  Iter=  2 NonCon=     1 RMS=3.38D-05 Max=3.42D-04 NDo=     1
 LinEq1:  Iter=  3 NonCon=     1 RMS=7.08D-06 Max=4.28D-05 NDo=     1
 LinEq1:  Iter=  4 NonCon=     1 RMS=2.44D-06 Max=2.06D-05 NDo=     1
 LinEq1:  Iter=  5 NonCon=     1 RMS=5.16D-07 Max=3.80D-06 NDo=     1
 LinEq1:  Iter=  6 NonCon=     1 RMS=9.45D-08 Max=6.90D-07 NDo=     1
 LinEq1:  Iter=  7 NonCon=     1 RMS=9.89D-09 Max=6.57D-08 NDo=     1
 LinEq1:  Iter=  8 NonCon=     0 RMS=1.04D-09 Max=1.01D-08 NDo=     1
 Linear equations converged to 1.640D-09 1.640D-08 after     8 iterations.
 LinEq1:  Iter=  0 NonCon=     1 RMS=1.19D-04 Max=8.78D-04 NDo=     1
 LinEq1:  Iter=  1 NonCon=     1 RMS=4.62D-05 Max=6.84D-04 NDo=     1
 LinEq1:  Iter=  2 NonCon=     1 RMS=3.04D-05 Max=2.91D-04 NDo=     1
 LinEq1:  Iter=  3 NonCon=     1 RMS=7.35D-06 Max=5.62D-05 NDo=     1
 LinEq1:  Iter=  4 NonCon=     1 RMS=2.10D-06 Max=1.96D-05 NDo=     1
 LinEq1:  Iter=  5 NonCon=     1 RMS=4.83D-07 Max=4.17D-06 NDo=     1
 LinEq1:  Iter=  6 NonCon=     1 RMS=8.70D-08 Max=5.54D-07 NDo=     1
 LinEq1:  Iter=  7 NonCon=     1 RMS=1.35D-08 Max=9.91D-08 NDo=     1
 LinEq1:  Iter=  8 NonCon=     0 RMS=1.37D-09 Max=9.37D-09 NDo=     1
 Linear equations converged to 1.640D-09 1.640D-08 after     8 iterations.
     Accept linear search using points  1 and  2.
 LinEq1:  Iter=  0 NonCon=     1 RMS=1.67D-04 Max=1.31D-03 NDo=     1
 LinEq1:  Iter=  1 NonCon=     1 RMS=4.10D-05 Max=6.23D-04 NDo=     1
 LinEq1:  Iter=  2 NonCon=     1 RMS=2.54D-05 Max=2.19D-04 NDo=     1
 LinEq1:  Iter=  3 NonCon=     1 RMS=1.22D-05 Max=1.13D-04 NDo=     1
 LinEq1:  Iter=  4 NonCon=     1 RMS=1.38D-06 Max=1.04D-05 NDo=     1
 LinEq1:  Iter=  5 NonCon=     1 RMS=3.98D-07 Max=3.98D-06 NDo=     1
 LinEq1:  Iter=  6 NonCon=     1 RMS=5.78D-08 Max=3.84D-07 NDo=     1
 LinEq1:  Iter=  7 NonCon=     1 RMS=8.09D-09 Max=5.00D-08 NDo=     1
 LinEq1:  Iter=  8 NonCon=     1 RMS=1.77D-09 Max=1.40D-08 NDo=     1
 LinEq1:  Iter=  9 NonCon=     0 RMS=6.94D-10 Max=9.68D-09 NDo=     1
 Linear equations converged to 1.640D-09 1.640D-08 after     9 iterations.
     Minimum is close to point  3 DX=  1.42D-01 DF= -5.98D-07 DXR=  8.68D-02 DFR=  9.21D-03 which will be used.
 LinEq1:  Iter=  0 NonCon=     1 RMS=9.81D-05 Max=7.60D-04 NDo=     1
 LinEq1:  Iter=  1 NonCon=     1 RMS=2.41D-05 Max=3.07D-04 NDo=     1
 LinEq1:  Iter=  2 NonCon=     1 RMS=2.05D-05 Max=1.68D-04 NDo=     1
 LinEq1:  Iter=  3 NonCon=     1 RMS=1.25D-05 Max=1.55D-04 NDo=     1
 LinEq1:  Iter=  4 NonCon=     1 RMS=1.23D-06 Max=8.39D-06 NDo=     1
 LinEq1:  Iter=  5 NonCon=     1 RMS=2.83D-07 Max=3.12D-06 NDo=     1
 LinEq1:  Iter=  6 NonCon=     1 RMS=3.40D-08 Max=2.72D-07 NDo=     1
 LinEq1:  Iter=  7 NonCon=     1 RMS=3.70D-09 Max=2.47D-08 NDo=     1
 LinEq1:  Iter=  8 NonCon=     0 RMS=7.23D-10 Max=4.66D-09 NDo=     1
 Linear equations converged to 1.640D-09 1.640D-08 after     8 iterations.
     Minimum is close to point  3 DX=  1.31D-01 DF= -2.07D-07 DXR=  8.04D-02 DFR=  7.98D-03 which will be used.
 LinEq1:  Iter=  0 NonCon=     1 RMS=5.73D-05 Max=4.94D-04 NDo=     1
 LinEq1:  Iter=  1 NonCon=     1 RMS=1.26D-05 Max=1.61D-04 NDo=     1
 LinEq1:  Iter=  2 NonCon=     1 RMS=1.40D-05 Max=1.49D-04 NDo=     1
 LinEq1:  Iter=  3 NonCon=     1 RMS=6.23D-06 Max=6.61D-05 NDo=     1
 LinEq1:  Iter=  4 NonCon=     1 RMS=6.56D-07 Max=3.82D-06 NDo=     1
 LinEq1:  Iter=  5 NonCon=     1 RMS=1.36D-07 Max=1.56D-06 NDo=     1
 LinEq1:  Iter=  6 NonCon=     1 RMS=2.07D-08 Max=1.52D-07 NDo=     1
 LinEq1:  Iter=  7 NonCon=     1 RMS=1.78D-09 Max=1.48D-08 NDo=     1
 LinEq1:  Iter=  8 NonCon=     0 RMS=2.44D-10 Max=1.60D-09 NDo=     1
 Linear equations converged to 1.640D-09 1.640D-08 after     8 iterations.
     Accept linear search using points  2 and  3.
     Minimum is close to point  3 DX= -1.17D-01 DF= -1.41D-08 DXR=  7.38D-02 DFR=  2.05D-03 which will be used.
 LinEq1:  Iter=  0 NonCon=     1 RMS=2.10D-05 Max=1.67D-04 NDo=     1
 LinEq1:  Iter=  1 NonCon=     1 RMS=1.62D-06 Max=1.56D-05 NDo=     1
 LinEq1:  Iter=  2 NonCon=     1 RMS=8.14D-07 Max=7.43D-06 NDo=     1
 LinEq1:  Iter=  3 NonCon=     1 RMS=2.92D-07 Max=2.39D-06 NDo=     1
 LinEq1:  Iter=  4 NonCon=     1 RMS=2.22D-07 Max=2.29D-06 NDo=     1
 LinEq1:  Iter=  5 NonCon=     1 RMS=5.41D-08 Max=3.95D-07 NDo=     1
 LinEq1:  Iter=  6 NonCon=     1 RMS=4.55D-09 Max=4.51D-08 NDo=     1
 LinEq1:  Iter=  7 NonCon=     0 RMS=1.11D-10 Max=6.23D-10 NDo=     1
 Linear equations converged to 1.640D-09 1.640D-08 after     7 iterations.
     Accept linear search using points  1 and  2.
     Minimum is close to point  2 DX= -3.35D-03 DF= -3.25D-12 DXR=  3.36D-03 DFR=  1.13D-05 which will be used.
 LinEq1:  Iter=  0 NonCon=     1 RMS=7.17D-07 Max=6.44D-06 NDo=     1
 LinEq1:  Iter=  1 NonCon=     1 RMS=1.08D-07 Max=1.09D-06 NDo=     1
 LinEq1:  Iter=  2 NonCon=     1 RMS=1.44D-07 Max=2.14D-06 NDo=     1
 LinEq1:  Iter=  3 NonCon=     1 RMS=1.84D-08 Max=2.51D-07 NDo=     1
 LinEq1:  Iter=  4 NonCon=     1 RMS=7.83D-09 Max=6.74D-08 NDo=     1
 LinEq1:  Iter=  5 NonCon=     1 RMS=1.48D-09 Max=7.48D-09 NDo=     1
 LinEq1:  Iter=  6 NonCon=     0 RMS=2.12D-10 Max=1.50D-09 NDo=     1
 Linear equations converged to 3.937D-10 3.937D-09 after     6 iterations.
 LinEq1:  Iter=  0 NonCon=     1 RMS=1.22D-07 Max=8.60D-07 NDo=     1
 LinEq1:  Iter=  1 NonCon=     1 RMS=3.72D-08 Max=3.12D-07 NDo=     1
 LinEq1:  Iter=  2 NonCon=     1 RMS=1.21D-08 Max=1.02D-07 NDo=     1
 LinEq1:  Iter=  3 NonCon=     1 RMS=6.64D-09 Max=5.90D-08 NDo=     1
 LinEq1:  Iter=  4 NonCon=     1 RMS=1.02D-09 Max=8.88D-09 NDo=     1
 LinEq1:  Iter=  5 NonCon=     1 RMS=2.20D-10 Max=2.97D-09 NDo=     1
 LinEq1:  Iter=  6 NonCon=     1 RMS=1.06D-10 Max=8.89D-10 NDo=     1
 LinEq1:  Iter=  7 NonCon=     0 RMS=1.85D-11 Max=1.62D-10 NDo=     1
 Linear equations converged to 6.002D-11 6.002D-10 after     7 iterations.
 SCF Done:  E(UB3LYP) =  -100.758856985     a.u. after   32 cycles
            Convg  =    0.5468D-07                   221 Fock formations.
              S**2 =  1.7373                  -V/T =  2.0014
 <Sx>= 0.0000 <Sy>= 0.0000 <Sz>= 0.5000 <S**2>= 1.7373 S= 0.9097
 <L.S>=  0.00000000000    
 Annihilation of the first spin contaminant:
 S**2 before annihilation     1.7373,   after     0.7530
 DoSCS=F DFT=T ScalE2(SS,OS)=  1.000000  1.000000
 Range of M.O.s used for correlation:     1    30
 NBasis=    30 NAE=     6 NBE=     5 NFC=     0 NFV=     0
 NROrb=     30 NOA=     6 NOB=     5 NVA=    24 NVB=    25

 **** Warning!!: The smallest beta delta epsilon is  0.71514942D-01

 Symmetrizing basis deriv contribution to polar:
 IMax=3 JMax=2 DiffMx= 0.00D+00
 G2DrvN: will do     4 centers at a time, making    1 passes.
 Calling FoFCou, ICntrl=  3107 FMM=F I1Cent=   0 AccDes= 0.00D+00.
 End of G2Drv F.D. properties file   721 does not exist.
 End of G2Drv F.D. properties file   722 does not exist.
 End of G2Drv F.D. properties file   788 does not exist.
          IDoAtm=111
          Differentiating once with respect to electric field.
                with respect to dipole field.
          Differentiating once with respect to nuclear coordinates.
 Keep R1 and R2 ints in memory in canonical form, NReq=7101526.
          There are    12 degrees of freedom in the 1st order CPHF.  IDoFFX=6 NUNeed=     3.
      9 vectors produced by pass  0 Test12= 2.24D-15 8.33D-09 XBig12= 8.90D+01 9.31D+00.
 AX will form     9 AO Fock derivatives at one time.
      9 vectors produced by pass  1 Test12= 2.24D-15 8.33D-09 XBig12= 5.07D-01 2.77D-01.
      9 vectors produced by pass  2 Test12= 2.24D-15 8.33D-09 XBig12= 8.39D-02 2.01D-01.
      7 vectors produced by pass  3 Test12= 2.24D-15 8.33D-09 XBig12= 2.71D-04 6.45D-03.
      6 vectors produced by pass  4 Test12= 2.24D-15 8.33D-09 XBig12= 2.09D-06 6.08D-04.
      3 vectors produced by pass  5 Test12= 2.24D-15 8.33D-09 XBig12= 5.58D-09 3.22D-05.
      1 vectors produced by pass  6 Test12= 2.24D-15 8.33D-09 XBig12= 2.50D-11 2.42D-06.
      1 vectors produced by pass  7 Test12= 2.24D-15 8.33D-09 XBig12= 3.55D-14 6.40D-08.
 InvSVY:  IOpt=1 It=  1 EMax= 1.30D-14
 Solved reduced A of dimension    45 with     9 vectors.
 Isotropic polarizability for W=    0.000000        8.22 Bohr**3.
 End of Minotr F.D. properties file   721 does not exist.
 End of Minotr F.D. properties file   722 does not exist.
 End of Minotr F.D. properties file   788 does not exist.

 **********************************************************************

            Population analysis using the SCF Density.

 **********************************************************************

 Alpha  occ. eigenvalues --  -24.75534  -1.21486  -0.54657  -0.45891  -0.45891
 Alpha  occ. eigenvalues --   -0.32299
 Alpha virt. eigenvalues --   -0.06647   0.24214   0.37304   0.87306   0.91389
 Alpha virt. eigenvalues --    0.91389   1.01585   1.25201   1.25201   1.25288
 Alpha virt. eigenvalues --    1.45707   1.45707   1.45717   2.14852   2.41661
 Alpha virt. eigenvalues --    3.65588   3.67784   3.67784   3.74762   3.74763
 Alpha virt. eigenvalues --    5.86728   5.94171   5.94171  66.47410
  Beta  occ. eigenvalues --  -24.72410  -1.12509  -0.42760  -0.42760  -0.32709
  Beta virt. eigenvalues --   -0.25558  -0.06235   0.23982   0.38087   0.92881
  Beta virt. eigenvalues --    0.92881   0.96507   1.05628   1.24736   1.24736
  Beta virt. eigenvalues --    1.24805   1.46184   1.46386   1.46386   2.14979
  Beta virt. eigenvalues --    2.41847   3.76377   3.76378   3.77504   3.77504
  Beta virt. eigenvalues --    3.79509   5.96818   5.96818   6.00745  66.50520
          Condensed to atoms (all electrons):
               1          2          3
     1  H    0.988990   0.001111   0.001245
     2  H    0.001111   0.998790  -0.000000
     3  F    0.001245  -0.000000   9.007508
          Atomic-Atomic Spin Densities.
               1          2          3
     1  H   -0.988370   0.000063  -0.000592
     2  H    0.000063   0.998470  -0.000000
     3  F   -0.000592  -0.000000   0.990957
 Mulliken charges and spin densities:
               1          2
     1  H    0.008653  -0.988898
     2  H    0.000099   0.998533
     3  F   -0.008753   0.990365
 Sum of Mulliken charges =  -0.00000   1.00000
 Mulliken charges and spin densities with hydrogens summed into heavy atoms:
               1          2
     3  F   -0.000000   1.000000
 APT charges:
               1
     1  H   -0.023906
     2  H    0.000049
     3  F    0.023858
 Sum of APT charges =  -0.00000
 APT charges with hydrogens summed into heavy atoms:
               1
     3  F   -0.000000
 Electronic spatial extent (au):  <R**2>=            480.8429
 Charge=             -0.0000 electrons
 Dipole moment (field-independent basis, Debye):
    X=             -0.1640    Y=              0.0000    Z=              0.0000  Tot=              0.1640
 Quadrupole moment (field-independent basis, Debye-Ang):
   XX=             -7.2724   YY=             -7.6206   ZZ=             -7.6206
   XY=             -0.0000   XZ=             -0.0000   YZ=             -0.0000
 Traceless Quadrupole moment (field-independent basis, Debye-Ang):
   XX=              0.2321   YY=             -0.1161   ZZ=             -0.1161
   XY=             -0.0000   XZ=             -0.0000   YZ=             -0.0000
 Octapole moment (field-independent basis, Debye-Ang**2):
  XXX=            -29.9570  YYY=             -0.0000  ZZZ=             -0.0000  XYY=            -12.3612
  XXY=             -0.0000  XXZ=             -0.0000  XZZ=            -12.3612  YZZ=             -0.0000
  YYZ=             -0.0000  XYZ=             -0.0000
 Hexadecapole moment (field-independent basis, Debye-Ang**3):
 XXXX=           -432.7368 YYYY=             -6.3399 ZZZZ=             -6.3399 XXXY=             -0.0000
 XXXZ=             -0.0000 YYYX=             -0.0000 YYYZ=             -0.0000 ZZZX=             -0.0000
 ZZZY=             -0.0000 XXYY=            -83.3229 XXZZ=            -83.3229 YYZZ=             -2.1133
 XXYZ=             -0.0000 YYXZ=             -0.0000 ZZXY=             -0.0000
 N-N= 2.124832726228D+00 E-N=-2.452068998908D+02  KE= 1.006163576453D+02
  Exact polarizability:      20.590      -0.000       2.042      -0.000      -0.000       2.042
 Approx polarizability:      15.756      -0.000       1.935      -0.000       0.000       1.935
                          Isotropic Fermi Contact Couplings
        Atom                 a.u.       MegaHertz       Gauss      10(-4) cm-1
     1  H(1)              -0.29432   -1315.59615    -469.43742    -438.83564
     2  H(1)               0.29661    1325.79055     473.07503     442.23612
     3  F(19)              0.03024     127.21357      45.39297      42.43388
 --------------------------------------------------------
       Center         ----  Spin Dipole Couplings  ----
                      3XX-RR        3YY-RR        3ZZ-RR
 --------------------------------------------------------
     1   Atom        0.012835     -0.006417     -0.006417
     2   Atom       -0.005215      0.002608      0.002608
     3   Atom        6.231944     -3.115972     -3.115972
 --------------------------------------------------------
                        XY            XZ            YZ
 --------------------------------------------------------
     1   Atom        0.000000      0.000000     -0.000000
     2   Atom        0.000000      0.000000     -0.000000
     3   Atom       -0.000014     -0.000006      0.000000
 --------------------------------------------------------


 ---------------------------------------------------------------------------------
              Anisotropic Spin Dipole Couplings in Principal Axis System
 ---------------------------------------------------------------------------------

       Atom             a.u.   MegaHertz   Gauss  10(-4) cm-1        Axes

              Baa    -0.0064    -3.424    -1.222    -1.142 -0.0000  0.9267  0.3758
     1 H(1)   Bbb    -0.0064    -3.424    -1.222    -1.142  0.0000 -0.3758  0.9267
              Bcc     0.0128     6.848     2.444     2.284  1.0000  0.0000  0.0000
 
              Baa    -0.0052    -2.783    -0.993    -0.928  1.0000 -0.0000 -0.0000
     2 H(1)   Bbb     0.0026     1.391     0.496     0.464  0.0000  0.9270  0.3752
              Bcc     0.0026     1.391     0.496     0.464 -0.0000 -0.3752  0.9270
 
              Baa    -3.1160 -1564.921  -558.403  -522.001 -0.0000 -0.3736  0.9276
     3 F(19)  Bbb    -3.1160 -1564.921  -558.403  -522.001  0.0000  0.9276  0.3736
              Bcc     6.2319  3129.842  1116.805  1044.003  1.0000 -0.0000 -0.0000
 

 ---------------------------------------------------------------------------------

 Calling FoFJK, ICntrl=    100127 FMM=F ISym2X=0 I1Cent= 0 IOpClX= 1 NMat=1 NMatS=1 NMatT=0.
 Full mass-weighted force constant matrix:
 Low frequencies --- -214.0875  -88.9696   -0.0018    0.0006    0.0012   22.2618
 Low frequencies ---   22.2626   57.2298   57.2305
 ******    2 imaginary frequencies (negative Signs) ****** 
 Diagonal vibrational polarizability:
        6.8212122       0.4980157       0.4980223
 Harmonic frequencies (cm**-1), IR intensities (KM/Mole), Raman scattering
 activities (A**4/AMU), depolarization ratios for plane and unpolarized
 incident light, reduced masses (AMU), force constants (mDyne/A),
 and normal coordinates:
                      1                      2                      3
                      A                      A                      A
 Frequencies --   -214.0875               -88.9696                56.9108
 Red. masses --      1.0296                 1.0833                 1.0181
 Frc consts  --      0.0278                 0.0051                 0.0019
 IR Inten    --      7.3357                 0.7395                 0.0599
  Atom  AN      X      Y      Z        X      Y      Z        X      Y      Z
     1   1     0.95  -0.00  -0.00     0.26  -0.00  -0.00     0.00  -0.22   0.87
     2   1    -0.30   0.00   0.00     0.96   0.00   0.00     0.00   0.11  -0.43
     3   9    -0.03   0.00   0.00    -0.06   0.00   0.00    -0.00   0.01  -0.02
                      4
                      A
 Frequencies --     56.9116
 Red. masses --      1.0181
 Frc consts  --      0.0019
 IR Inten    --      0.0599
  Atom  AN      X      Y      Z
     1   1     0.00   0.87   0.22
     2   1     0.00  -0.43  -0.11
     3   9    -0.00  -0.02  -0.01

 -------------------
 - Thermochemistry -
 -------------------
 Temperature   298.150 Kelvin.  Pressure   1.00000 Atm.
 Atom     1 has atomic number  1 and mass   1.00783
 Atom     2 has atomic number  1 and mass   1.00783
 Atom     3 has atomic number  9 and mass  18.99840
 Molecular mass:    21.01405 amu.
 Principal axes and moments of inertia in atomic units:
                           1         2         3
     Eigenvalues --     0.00000 215.49632 215.49632
           X            1.00000  -0.00000   0.00000
           Y            0.00000   1.00000   0.00000
           Z            0.00000   0.00000   1.00000
 This molecule is a prolate symmetric top.
 Rotational symmetry number  1.
 Rotational temperature (Kelvin)      0.40193
 Rotational constant (GHZ):           8.374812
    2 imaginary frequencies ignored.
 Zero-point vibrational energy        680.8 (Joules/Mol)
                                    0.16272 (Kcal/Mol)
 Warning -- explicit consideration of   2 degrees of freedom as
           vibrations may cause significant error
 Vibrational temperatures:     81.88    81.88
          (Kelvin)
 
 Zero-point correction=                           0.000259 (Hartree/Particle)
 Thermal correction to Energy=                    0.004261
 Thermal correction to Enthalpy=                  0.005205
 Thermal correction to Gibbs Free Energy=        -0.023631
 Sum of electronic and zero-point Energies=           -100.758598
 Sum of electronic and thermal Energies=              -100.754596
 Sum of electronic and thermal Enthalpies=            -100.753652
 Sum of electronic and thermal Free Energies=         -100.782488
 
                     E (Thermal)             CV                S
                      KCal/Mol        Cal/Mol-Kelvin    Cal/Mol-Kelvin
 Total                    2.674              8.918             60.689
 Electronic               0.000              0.000              1.377
 Translational            0.889              2.981             35.068
 Rotational               0.592              1.987             15.121
 Vibrational              1.192              3.950              9.123
 Vibration     1          0.596              1.975              4.562
 Vibration     2          0.596              1.975              4.562
                       Q            Log10(Q)             Ln(Q)
 Total Bot       0.740107D+11         10.869295         25.027476
 Total V=0       0.974019D+11         10.988567         25.302111
 Vib (Bot)       0.131753D+02          1.119759          2.578341
 Vib (Bot)    1  0.362980D+01          0.559883          1.289178
 Vib (Bot)    2  0.362975D+01          0.559876          1.289163
 Vib (V=0)       0.173393D+02          1.239032          2.852976
 Vib (V=0)    1  0.416408D+01          0.619519          1.426494
 Vib (V=0)    2  0.416402D+01          0.619513          1.426482
 Electronic      0.200000D+01          0.301030          0.693147
 Translational   0.378633D+07          6.578219         15.146908
 Rotational      0.741800D+03          2.870287          6.609080
 -------------------------------------------------------------------
 Center     Atomic                   Forces (Hartrees/Bohr)
 Number     Number              X              Y              Z
 -------------------------------------------------------------------
      1        1           0.000412580    0.000000000    0.000000000
      2        1           0.000339116    0.000000000    0.000000000
      3        9          -0.000751695   -0.000000000   -0.000000000
 -------------------------------------------------------------------
 Cartesian Forces:  Max     0.000751695 RMS     0.000307366

 GradGradGradGradGradGradGradGradGradGradGradGradGradGradGradGradGradGrad
 Berny optimization.
 Search for a local minimum.
 Step number   1 out of a maximum of    2
 All quantities printed in internal units (Hartrees-Bohrs-Radians)
 Second derivative matrix not updated -- analytic derivatives used.
 The second derivative matrix:
                          X1        Y1        Z1        X2        Y2
           X1          -0.00158
           Y1           0.00000   0.00009
           Z1           0.00000   0.00000   0.00009
           X2           0.00042  -0.00000   0.00000  -0.00041
           Y2           0.00000  -0.00005   0.00000  -0.00000   0.00005
           Z2           0.00000   0.00000  -0.00005   0.00000   0.00000
           X3           0.00116  -0.00000  -0.00000  -0.00000  -0.00000
           Y3          -0.00000  -0.00004  -0.00000   0.00000   0.00000
           Z3          -0.00000  -0.00000  -0.00004  -0.00000  -0.00000
                          Z2        X3        Y3        Z3
           Z2           0.00005
           X3          -0.00000  -0.00116
           Y3          -0.00000   0.00000   0.00004
           Z3           0.00000   0.00000   0.00000   0.00004
 ITU=  0
     Eigenvalues ---   -0.00224  -0.00048   0.00013   0.00013
 Eigenvalue     1 is  -2.24D-03 should be greater than     0.000000 Eigenvector:
                          X1        X3        X2        Y1        Z1
   1                    0.95322  -0.29303  -0.07414  -0.00000  -0.00000
                          Y2        Z2        Y3        Z3
   1                    0.00000   0.00000   0.00000   0.00000
 Eigenvalue     2 is  -4.84D-04 should be greater than     0.000000 Eigenvector:
                          X2        X3        X1        Y1        Z1
   1                    0.95058  -0.30976  -0.02129  -0.00000  -0.00000
                          Y2        Z2        Y3        Z3
   1                    0.00000   0.00000   0.00000   0.00000
 Quadratic step=1.159D+00 exceeds max=3.000D-01 adjusted using Lamda=-1.623D-03.
 Angle between NR and scaled steps=  17.33 degrees.
 Angle between quadratic step and forces=  33.47 degrees.
 Linear search not attempted -- first point.
 B after Tr=    -0.083323   -0.000000    0.000000
         Rot=    0.967400    0.253254   -0.000000    0.000000 Ang=  29.34 deg.
 Variable       Old X    -DE/DX   Delta X   Delta X   Delta X     New X
                                 (Linear)    (Quad)   (Total)
    X1        0.00000   0.00041   0.00000   0.13969   0.05636   0.05636
    Y1        0.00000   0.00000   0.00000   0.00000   0.00000   0.00000
    Z1        0.00000   0.00000   0.00000   0.00000  -0.00000  -0.00000
    X2       -6.89750   0.00034   0.00000   0.23527   0.15194  -6.74556
    Y2        0.00000   0.00000   0.00000  -0.00000  -0.00000  -0.00000
    Z2        0.00000   0.00000   0.00000  -0.00000   0.00000   0.00000
    X3        6.80301  -0.00075   0.00000  -0.12498  -0.20831   6.59471
    Y3        0.00000  -0.00000   0.00000  -0.00000  -0.00000  -0.00000
    Z3        0.00000  -0.00000   0.00000  -0.00000   0.00000   0.00000
         Item               Value     Threshold  Converged?
 Maximum Force            0.000752     0.000450     NO 
 RMS     Force            0.000307     0.000300     NO 
 Maximum Displacement     0.208306     0.001800     NO 
 RMS     Displacement     0.087974     0.001200     NO 
 Predicted change in Energy=-2.736380D-04
 GradGradGradGradGradGradGradGradGradGradGradGradGradGradGradGradGradGrad


 ----------------------------------------------------------------------

 Electric dipole moment (input orientation):
 (Debye = 10**-18 statcoulomb cm , SI units = C m)
                  (au)            (Debye)         (10**-30 SI)
   Tot        0.645087D-01      0.163965D+00      0.546927D+00
   x         -0.645087D-01     -0.163965D+00     -0.546927D+00
   y          0.000000D+00      0.000000D+00      0.000000D+00
   z          0.000000D+00      0.000000D+00      0.000000D+00

 Dipole polarizability, Alpha (input orientation).
 (esu units = cm**3 , SI units = C**2 m**2 J**-1)
 Alpha(0;0):
               (au)            (10**-24 esu)      (10**-40 SI)
   iso        0.822460D+01      0.121876D+01      0.135605D+01
   aniso      0.185479D+02      0.274851D+01      0.305813D+01
   xx         0.205898D+02      0.305110D+01      0.339481D+01
   yx         0.000000D+00      0.000000D+00      0.000000D+00
   yy         0.204198D+01      0.302590D+00      0.336676D+00
   zx         0.000000D+00      0.000000D+00      0.000000D+00
   zy         0.000000D+00      0.000000D+00      0.000000D+00
   zz         0.204198D+01      0.302590D+00      0.336677D+00

 ----------------------------------------------------------------------

 Dipole orientation:
     1          0.00000000          0.00000000          0.00000000
     1         -0.00000012         -0.00000034          6.89750035
     9          0.00000012          0.00000033         -6.80301405

 Electric dipole moment (dipole orientation):
 (Debye = 10**-18 statcoulomb cm , SI units = C m)
                  (au)            (Debye)         (10**-30 SI)
   Tot        0.645087D-01      0.163965D+00      0.546927D+00
   x          0.000000D+00      0.000000D+00      0.000000D+00
   y          0.000000D+00      0.000000D+00      0.000000D+00
   z          0.645087D-01      0.163965D+00      0.546927D+00

 Dipole polarizability, Alpha (dipole orientation).
 (esu units = cm**3 , SI units = C**2 m**2 J**-1)
 Alpha(0;0):
               (au)            (10**-24 esu)      (10**-40 SI)
   iso        0.822460D+01      0.121876D+01      0.135605D+01
   aniso      0.185479D+02      0.274851D+01      0.305813D+01
   xx         0.204198D+01      0.302590D+00      0.336677D+00
   yx         0.000000D+00      0.000000D+00      0.000000D+00
   yy         0.204198D+01      0.302590D+00      0.336676D+00
   zx         0.000000D+00      0.000000D+00      0.000000D+00
   zy         0.000000D+00      0.000000D+00      0.000000D+00
   zz         0.205898D+02      0.305110D+01      0.339481D+01

 ----------------------------------------------------------------------
 Unable to Open any file for archive entry.
 1\1\GINC-DESKTOP-B3RIHJD\Freq\UB3LYP\6-311G(d,p)\F1H2(2)\GARYX\22-Aug-
 2025\0\\# sp b3lyp/6-311g** Force nosymm scf=(qc)\\Title Card Required
 \\0,2\H,0.,0.,0.\H,-3.65,0.,0.\F,3.6,0.,0.\\Version=ES64L-G16RevC.01\H
 F=-100.758857\S2=1.737346\S2-1=0.\S2A=0.753003\RMSD=3.334e-09\RMSF=3.0
 74e-04\Thermal=0.0042607\ETot=-100.7545963\HTot=-100.7536521\GTot=-100
 .7824875\Dipole=-0.0645087,0.,0.\DipoleDeriv=-0.0890328,0.,0.,0.,0.008
 6569,0.,0.,0.,0.0086568,-0.0000752,0.,0.,0.,0.0001107,0.,0.,0.,0.00011
 07,0.089108,0.,0.,0.,-0.0087675,0.,0.,0.,-0.0087675\Polar=20.5898398,-
 0.0000021,2.0419764,-0.0000007,-0.0000002,2.0419771\Quadrupole=0.17257
 91,-0.0862896,-0.0862896,-0.0000009,-0.0000004,0.\PG=C*V [C*(H1H1F1)]\
 NImag=2\\-0.00157583,0.,0.00009271,0.,0.,0.00009270,0.00041645,0.,0.,-
 0.00041283,0.,-0.00004888,0.,0.,0.00004879,0.,0.,-0.00004888,0.,0.,0.0
 0004879,0.00115938,0.,0.,-0.00000362,0.,0.,-0.00115576,0.,-0.00004383,
 0.,0.,0.00000008,0.,0.,0.00004375,0.,0.,-0.00004383,0.,0.,0.00000008,0
 .,0.,0.00004375\\-0.00041258,0.,0.,-0.00033912,0.,0.,0.00075170,0.,0.\
 \\@
 The archive entry for this job was punched.


 SLITHERY-DITHERY
 FRIEDRICH A. KEKULE
 DREAMT ON A BUS OF THINGS
 FREUD WOULD THINK KEEN.
 MOST OF THE TIME THEY WERE
 HERPETOLOGICAL
 BITING THEIR TAILS IN THE
 SHAPE OF BENZENE.
 Job cpu time:       0 days  0 hours  0 minutes 40.6 seconds.
 Elapsed time:       0 days  0 hours  0 minutes  5.6 seconds.
 File lengths (MBytes):  RWF=      6 Int=      0 D2E=      0 Chk=      1 Scr=      1
 Normal termination of Gaussian 16 at Fri Aug 22 23:08:13 2025.
