 Entering Gaussian System, Link 0=g16
 Initial command:
 /home/garyx/gaussian/g16/l1.exe "/tmp/gaussian_scratch/Gau-687184.inp" -scrdir="/tmp/gaussian_scratch/"
 Entering Link 1 = /home/garyx/gaussian/g16/l1.exe PID=    687186.
  
 Copyright (c) 1988-2019, Gaussian, Inc.  All Rights Reserved.
  
 This is part of the Gaussian(R) 16 program.  It is based on
 the Gaussian(R) 09 system (copyright 2009, Gaussian, Inc.),
 the Gaussian(R) 03 system (copyright 2003, Gaussian, Inc.),
 the Gaussian(R) 98 system (copyright 1998, Gaussian, Inc.),
 the Gaussian(R) 94 system (copyright 1995, Gaussian, Inc.),
 the Gaussian 92(TM) system (copyright 1992, Gaussian, Inc.),
 the Gaussian 90(TM) system (copyright 1990, Gaussian, Inc.),
 the Gaussian 88(TM) system (copyright 1988, Gaussian, Inc.),
 the Gaussian 86(TM) system (copyright 1986, Carnegie Mellon
 University), and the Gaussian 82(TM) system (copyright 1983,
 Carnegie Mellon University). Gaussian is a federally registered
 trademark of Gaussian, Inc.
  
 This software contains proprietary and confidential information,
 including trade secrets, belonging to Gaussian, Inc.
  
 This software is provided under written license and may be
 used, copied, transmitted, or stored only in accord with that
 written license.
  
 The following legend is applicable only to US Government
 contracts under FAR:
  
                    RESTRICTED RIGHTS LEGEND
  
 Use, reproduction and disclosure by the US Government is
 subject to restrictions as set forth in subparagraphs (a)
 and (c) of the Commercial Computer Software - Restricted
 Rights clause in FAR 52.227-19.
  
 Gaussian, Inc.
 340 Quinnipiac St., Bldg. 40, Wallingford CT 06492
  
  
 ---------------------------------------------------------------
 Warning -- This program may not be used in any manner that
 competes with the business of Gaussian, Inc. or will provide
 assistance to any competitor of Gaussian, Inc.  The licensee
 of this program is prohibited from giving any competitor of
 Gaussian, Inc. access to this program.  By using this program,
 the user acknowledges that Gaussian, Inc. is engaged in the
 business of creating and licensing software in the field of
 computational chemistry and represents and warrants to the
 licensee that it is not a competitor of Gaussian, Inc. and that
 it will not use this program in any manner prohibited above.
 ---------------------------------------------------------------
  

 Cite this work as:
 Gaussian 16, Revision C.01,
 M. J. Frisch, G. W. Trucks, H. B. Schlegel, G. E. Scuseria, 
 M. A. Robb, J. R. Cheeseman, G. Scalmani, V. Barone, 
 G. A. Petersson, H. Nakatsuji, X. Li, M. Caricato, A. V. Marenich, 
 J. Bloino, B. G. Janesko, R. Gomperts, B. Mennucci, H. P. Hratchian, 
 J. V. Ortiz, A. F. Izmaylov, J. L. Sonnenberg, D. Williams-Young, 
 F. Ding, F. Lipparini, F. Egidi, J. Goings, B. Peng, A. Petrone, 
 T. Henderson, D. Ranasinghe, V. G. Zakrzewski, J. Gao, N. Rega, 
 G. Zheng, W. Liang, M. Hada, M. Ehara, K. Toyota, R. Fukuda, 
 J. Hasegawa, M. Ishida, T. Nakajima, Y. Honda, O. Kitao, H. Nakai, 
 T. Vreven, K. Throssell, J. A. Montgomery, Jr., J. E. Peralta, 
 F. Ogliaro, M. J. Bearpark, J. J. Heyd, E. N. Brothers, K. N. Kudin, 
 V. N. Staroverov, T. A. Keith, R. Kobayashi, J. Normand, 
 K. Raghavachari, A. P. Rendell, J. C. Burant, S. S. Iyengar, 
 J. Tomasi, M. Cossi, J. M. Millam, M. Klene, C. Adamo, R. Cammi, 
 J. W. Ochterski, R. L. Martin, K. Morokuma, O. Farkas, 
 J. B. Foresman, and D. J. Fox, Gaussian, Inc., Wallingford CT, 2019.
 
 ******************************************
 Gaussian 16:  ES64L-G16RevC.01  3-Jul-2019
                22-Aug-2025 
 ******************************************
 %mem=10GB
 %nprocs=8
 Will use up to    8 processors via shared memory.
 -----------------------------------------
 # sp b3lyp/6-311g** Force nosymm scf=(qc)
 -----------------------------------------
 1/10=4,30=1,38=1/1,3;
 2/12=2,15=1,17=6,18=5,40=1/2;
 3/5=4,6=6,7=101,11=2,25=1,30=1,71=2,74=-5,140=1/1,2,3;
 4//1;
 5/5=2,8=3,38=5,98=1/8;
 8/6=4,10=90,11=11/1;
 11/6=1,8=1,9=11,15=111,16=1,31=1/1,2,10;
 10/6=1,31=1/2;
 6/7=2,8=2,9=2,10=2,28=1/1;
 7/8=1,10=1,25=1,30=1/1,2,3,16;
 1/10=4,30=1/3;
 99//99;
 -------------------
 Title Card Required
 -------------------
 Symbolic Z-matrix:
 Charge =  0 Multiplicity = 2
 H                     0.        0.        0. 
 H                    -1.95      0.        0. 
 F                     2.75      0.        0. 
 

 GradGradGradGradGradGradGradGradGradGradGradGradGradGradGradGradGradGrad
 Berny optimization.
 Initialization pass.
 Trust Radius=3.00D-01 FncErr=1.00D-07 GrdErr=1.00D-07 EigMax=2.50D+02 EigMin=1.00D-04
 Number of steps in this run=      2 maximum allowed number of steps=      2.
 GradGradGradGradGradGradGradGradGradGradGradGradGradGradGradGradGradGrad

                          Input orientation:                          
 ---------------------------------------------------------------------
 Center     Atomic      Atomic             Coordinates (Angstroms)
 Number     Number       Type             X           Y           Z
 ---------------------------------------------------------------------
      1          1           0        0.000000    0.000000    0.000000
      2          1           0       -1.950000    0.000000    0.000000
      3          9           0        2.750000    0.000000    0.000000
 ---------------------------------------------------------------------
                    Distance matrix (angstroms):
                    1          2          3
     1  H    0.000000
     2  H    1.950000   0.000000
     3  F    2.750000   4.700000   0.000000
 Symmetry turned off by external request.
 Stoichiometry    FH2(2)
 Framework group  C*V[C*(HHF)]
 Deg. of freedom     2
 Full point group                 C*V     NOp   4
 Rotational constants (GHZ):           0.0000000          18.5788631          18.5788631
 Standard basis: 6-311G(d,p) (5D, 7F)
    30 basis functions,    48 primitive gaussians,    31 cartesian basis functions
     6 alpha electrons        5 beta electrons
       nuclear repulsion energy         3.0165436824 Hartrees.
 NAtoms=    3 NActive=    3 NUniq=    3 SFac= 1.00D+00 NAtFMM=   60 NAOKFM=F Big=F
 Integral buffers will be    131072 words long.
 Raffenetti 2 integral format.
 Two-electron integral symmetry is turned off.
 One-electron integrals computed using PRISM.
 NBasis=    30 RedAO= T EigKep=  7.88D-02  NBF=    30
 NBsUse=    30 1.00D-06 EigRej= -1.00D+00 NBFU=    30
 ExpMin= 1.03D-01 ExpMax= 1.14D+04 ExpMxC= 1.72D+03 IAcc=3 IRadAn=         5 AccDes= 0.00D+00
 Harris functional with IExCor=  402 and IRadAn=       5 diagonalized for initial guess.
 HarFok:  IExCor=  402 AccDes= 0.00D+00 IRadAn=         5 IDoV= 1 UseB2=F ITyADJ=14
 ICtDFT=  3500011 ScaDFX=  1.000000  1.000000  1.000000  1.000000
 FoFCou: FMM=F IPFlag=           0 FMFlag=      100000 FMFlg1=           0
         NFxFlg=           0 DoJE=T BraDBF=F KetDBF=T FulRan=T
         wScrn=  0.000000 ICntrl=       500 IOpCl=  0 I1Cent=   200000004 NGrid=           0
         NMat0=    1 NMatS0=      1 NMatT0=    0 NMatD0=    1 NMtDS0=    0 NMtDT0=    0
 Symmetry not used in FoFCou.
 Initial guess <Sx>= 0.0000 <Sy>= 0.0000 <Sz>= 0.5000 <S**2>= 0.7500 S= 0.5000
 Keep R1 and R2 ints in memory in canonical form, NReq=7127049.
 Gradient too large for Newton-Raphson -- use scaled steepest descent instead.
  Beta Gap=    -0.557 HL deriv= 1.89D-17 Rot set to   1.03D+00
     Accept linear search using points  2 and  3.
 Gradient too large for Newton-Raphson -- use scaled steepest descent instead.
 Gradient too large for Newton-Raphson -- use scaled steepest descent instead.
     Accept linear search using points  1 and  2.
 Gradient too large for Newton-Raphson -- use scaled steepest descent instead.
 Gradient too large for Newton-Raphson -- use scaled steepest descent instead.
 Gradient too large for Newton-Raphson -- use scaled steepest descent instead.
     Accept linear search using points  1 and  2.
 Gradient too large for Newton-Raphson -- use scaled steepest descent instead.
 Gradient too large for Newton-Raphson -- use scaled steepest descent instead.
     Accept linear search using points  1 and  2.
 Gradient too large for Newton-Raphson -- use scaled steepest descent instead.
 Gradient too large for Newton-Raphson -- use scaled steepest descent instead.
     Accept linear search using points  1 and  2.
 LinEq1:  Iter=  0 NonCon=     1 RMS=1.66D-03 Max=2.03D-02 NDo=     1
 AX will form     1 AO Fock derivatives at one time.
 LinEq1:  Iter=  1 NonCon=     1 RMS=9.25D-04 Max=9.08D-03 NDo=     1
 LinEq1:  Iter=  2 NonCon=     1 RMS=4.32D-04 Max=3.88D-03 NDo=     1
 LinEq1:  Iter=  3 NonCon=     1 RMS=1.88D-04 Max=1.70D-03 NDo=     1
 LinEq1:  Iter=  4 NonCon=     1 RMS=2.71D-05 Max=2.34D-04 NDo=     1
 LinEq1:  Iter=  5 NonCon=     1 RMS=9.21D-06 Max=9.87D-05 NDo=     1
 LinEq1:  Iter=  6 NonCon=     1 RMS=3.02D-06 Max=2.11D-05 NDo=     1
 LinEq1:  Iter=  7 NonCon=     1 RMS=2.89D-07 Max=2.96D-06 NDo=     1
 LinEq1:  Iter=  8 NonCon=     1 RMS=7.69D-08 Max=6.33D-07 NDo=     1
 LinEq1:  Iter=  9 NonCon=     1 RMS=8.83D-09 Max=7.99D-08 NDo=     1
 LinEq1:  Iter= 10 NonCon=     1 RMS=3.74D-09 Max=4.96D-08 NDo=     1
 LinEq1:  Iter= 11 NonCon=     0 RMS=8.23D-10 Max=3.62D-09 NDo=     1
 Linear equations converged to 1.640D-09 1.640D-08 after    11 iterations.
 Incorrect curvature in search direction -- initial direction reversed.
     Accept linear search using points  1 and  2.
 Gradient too large for Newton-Raphson -- use scaled steepest descent instead.
     Accept linear search using points  1 and  2.
 Gradient too large for Newton-Raphson -- use scaled steepest descent instead.
     Accept linear search using points  1 and  2.
 LinEq1:  Iter=  0 NonCon=     1 RMS=9.25D-04 Max=9.27D-03 NDo=     1
 LinEq1:  Iter=  1 NonCon=     1 RMS=5.93D-04 Max=8.11D-03 NDo=     1
 LinEq1:  Iter=  2 NonCon=     1 RMS=3.34D-04 Max=3.21D-03 NDo=     1
 LinEq1:  Iter=  3 NonCon=     1 RMS=8.27D-05 Max=7.24D-04 NDo=     1
 LinEq1:  Iter=  4 NonCon=     1 RMS=1.48D-05 Max=1.23D-04 NDo=     1
 LinEq1:  Iter=  5 NonCon=     1 RMS=4.04D-06 Max=2.97D-05 NDo=     1
 LinEq1:  Iter=  6 NonCon=     1 RMS=9.28D-07 Max=8.28D-06 NDo=     1
 LinEq1:  Iter=  7 NonCon=     1 RMS=7.94D-08 Max=5.30D-07 NDo=     1
 LinEq1:  Iter=  8 NonCon=     1 RMS=6.91D-09 Max=4.84D-08 NDo=     1
 LinEq1:  Iter=  9 NonCon=     1 RMS=1.99D-09 Max=2.04D-08 NDo=     1
 LinEq1:  Iter= 10 NonCon=     0 RMS=1.12D-09 Max=1.34D-08 NDo=     1
 Linear equations converged to 1.640D-09 1.640D-08 after    10 iterations.
 Gradient too large for Newton-Raphson -- use scaled steepest descent instead.
     Accept linear search using points  2 and  3.
 LinEq1:  Iter=  0 NonCon=     1 RMS=4.81D-04 Max=5.48D-03 NDo=     1
 LinEq1:  Iter=  1 NonCon=     1 RMS=5.58D-04 Max=6.80D-03 NDo=     1
 LinEq1:  Iter=  2 NonCon=     1 RMS=1.63D-04 Max=2.02D-03 NDo=     1
 LinEq1:  Iter=  3 NonCon=     1 RMS=6.18D-05 Max=8.83D-04 NDo=     1
 LinEq1:  Iter=  4 NonCon=     1 RMS=1.28D-05 Max=1.16D-04 NDo=     1
 LinEq1:  Iter=  5 NonCon=     1 RMS=1.04D-06 Max=8.89D-06 NDo=     1
 LinEq1:  Iter=  6 NonCon=     1 RMS=1.52D-07 Max=1.40D-06 NDo=     1
 LinEq1:  Iter=  7 NonCon=     1 RMS=1.57D-08 Max=1.08D-07 NDo=     1
 LinEq1:  Iter=  8 NonCon=     1 RMS=4.38D-09 Max=4.19D-08 NDo=     1
 LinEq1:  Iter=  9 NonCon=     1 RMS=2.35D-09 Max=2.97D-08 NDo=     1
 LinEq1:  Iter= 10 NonCon=     0 RMS=4.40D-10 Max=2.96D-09 NDo=     1
 Linear equations converged to 1.640D-09 1.640D-08 after    10 iterations.
     Accept linear search using points  1 and  2.
 Gradient too large for Newton-Raphson -- use scaled steepest descent instead.
 LinEq1:  Iter=  0 NonCon=     1 RMS=2.40D-04 Max=3.01D-03 NDo=     1
 LinEq1:  Iter=  1 NonCon=     1 RMS=2.18D-04 Max=2.92D-03 NDo=     1
 LinEq1:  Iter=  2 NonCon=     1 RMS=7.24D-05 Max=5.84D-04 NDo=     1
 LinEq1:  Iter=  3 NonCon=     1 RMS=2.33D-05 Max=2.94D-04 NDo=     1
 LinEq1:  Iter=  4 NonCon=     1 RMS=5.71D-06 Max=6.70D-05 NDo=     1
 LinEq1:  Iter=  5 NonCon=     1 RMS=9.45D-07 Max=5.94D-06 NDo=     1
 LinEq1:  Iter=  6 NonCon=     1 RMS=7.88D-08 Max=5.44D-07 NDo=     1
 LinEq1:  Iter=  7 NonCon=     1 RMS=1.26D-08 Max=1.16D-07 NDo=     1
 LinEq1:  Iter=  8 NonCon=     1 RMS=2.29D-09 Max=1.89D-08 NDo=     1
 LinEq1:  Iter=  9 NonCon=     0 RMS=3.84D-10 Max=2.44D-09 NDo=     1
 Linear equations converged to 1.640D-09 1.640D-08 after     9 iterations.
     Accept linear search using points  1 and  2.
     Minimum is close to point  2 DX= -2.47D-02 DF= -1.85D-08 DXR=  2.53D-02 DFR=  6.62D-04 which will be used.
 LinEq1:  Iter=  0 NonCon=     1 RMS=6.26D-05 Max=8.74D-04 NDo=     1
 LinEq1:  Iter=  1 NonCon=     1 RMS=2.61D-05 Max=2.24D-04 NDo=     1
 LinEq1:  Iter=  2 NonCon=     1 RMS=8.92D-06 Max=1.05D-04 NDo=     1
 LinEq1:  Iter=  3 NonCon=     1 RMS=3.18D-06 Max=3.09D-05 NDo=     1
 LinEq1:  Iter=  4 NonCon=     1 RMS=1.44D-06 Max=1.62D-05 NDo=     1
 LinEq1:  Iter=  5 NonCon=     1 RMS=3.65D-07 Max=3.52D-06 NDo=     1
 LinEq1:  Iter=  6 NonCon=     1 RMS=5.46D-08 Max=4.36D-07 NDo=     1
 LinEq1:  Iter=  7 NonCon=     1 RMS=7.49D-09 Max=5.86D-08 NDo=     1
 LinEq1:  Iter=  8 NonCon=     1 RMS=1.68D-09 Max=1.58D-08 NDo=     1
 LinEq1:  Iter=  9 NonCon=     0 RMS=2.22D-10 Max=1.82D-09 NDo=     1
 Linear equations converged to 1.640D-09 1.640D-08 after     9 iterations.
     Minimum is close to point  2 DX=  3.75D-05 DF=  0.00D+00 DXR=  3.75D-05 DFR=  0.00D+00 which will be used.
 LinEq1:  Iter=  0 NonCon=     1 RMS=1.13D-07 Max=1.73D-06 NDo=     1
 LinEq1:  Iter=  1 NonCon=     1 RMS=5.16D-08 Max=7.20D-07 NDo=     1
 LinEq1:  Iter=  2 NonCon=     1 RMS=2.86D-08 Max=1.93D-07 NDo=     1
 LinEq1:  Iter=  3 NonCon=     1 RMS=8.43D-09 Max=7.88D-08 NDo=     1
 LinEq1:  Iter=  4 NonCon=     1 RMS=2.65D-09 Max=2.83D-08 NDo=     1
 LinEq1:  Iter=  5 NonCon=     1 RMS=5.37D-10 Max=5.62D-09 NDo=     1
 LinEq1:  Iter=  6 NonCon=     1 RMS=1.19D-10 Max=9.37D-10 NDo=     1
 LinEq1:  Iter=  7 NonCon=     1 RMS=3.76D-11 Max=3.81D-10 NDo=     1
 LinEq1:  Iter=  8 NonCon=     0 RMS=2.72D-12 Max=1.91D-11 NDo=     1
 Linear equations converged to 4.912D-12 4.912D-11 after     8 iterations.
 SCF Done:  E(UB3LYP) =  -100.780584279     a.u. after   21 cycles
            Convg  =    0.8813D-08                   113 Fock formations.
              S**2 =  1.3593                  -V/T =  2.0026
 <Sx>= 0.0000 <Sy>= 0.0000 <Sz>= 0.5000 <S**2>= 1.3593 S= 0.7686
 <L.S>=  0.00000000000    
 Annihilation of the first spin contaminant:
 S**2 before annihilation     1.3593,   after     0.7514
 DoSCS=F DFT=T ScalE2(SS,OS)=  1.000000  1.000000
 Range of M.O.s used for correlation:     1    30
 NBasis=    30 NAE=     6 NBE=     5 NFC=     0 NFV=     0
 NROrb=     30 NOA=     6 NOB=     5 NVA=    24 NVB=    25

 **** Warning!!: The smallest beta delta epsilon is  0.99696820D-01

 Symmetrizing basis deriv contribution to polar:
 IMax=3 JMax=2 DiffMx= 0.00D+00
 G2DrvN: will do     4 centers at a time, making    1 passes.
 Calling FoFCou, ICntrl=  3107 FMM=F I1Cent=   0 AccDes= 0.00D+00.
 End of G2Drv F.D. properties file   721 does not exist.
 End of G2Drv F.D. properties file   722 does not exist.
 End of G2Drv F.D. properties file   788 does not exist.
          IDoAtm=111
          Differentiating once with respect to electric field.
                with respect to dipole field.
          Differentiating once with respect to nuclear coordinates.
 Keep R1 and R2 ints in memory in canonical form, NReq=7101519.
          There are    12 degrees of freedom in the 1st order CPHF.  IDoFFX=6 NUNeed=     3.
      9 vectors produced by pass  0 Test12= 2.24D-15 8.33D-09 XBig12= 2.44D+02 1.40D+01.
 AX will form     9 AO Fock derivatives at one time.
      9 vectors produced by pass  1 Test12= 2.24D-15 8.33D-09 XBig12= 6.58D+00 1.16D+00.
      9 vectors produced by pass  2 Test12= 2.24D-15 8.33D-09 XBig12= 3.59D-01 3.54D-01.
      9 vectors produced by pass  3 Test12= 2.24D-15 8.33D-09 XBig12= 1.63D-03 1.65D-02.
      7 vectors produced by pass  4 Test12= 2.24D-15 8.33D-09 XBig12= 1.30D-05 1.37D-03.
      5 vectors produced by pass  5 Test12= 2.24D-15 8.33D-09 XBig12= 6.67D-08 8.81D-05.
      2 vectors produced by pass  6 Test12= 2.24D-15 8.33D-09 XBig12= 7.90D-11 3.30D-06.
      1 vectors produced by pass  7 Test12= 2.24D-15 8.33D-09 XBig12= 1.11D-13 1.44D-07.
 InvSVY:  IOpt=1 It=  1 EMax= 1.57D-15
 Solved reduced A of dimension    51 with     9 vectors.
 Isotropic polarizability for W=    0.000000       21.88 Bohr**3.
 End of Minotr F.D. properties file   721 does not exist.
 End of Minotr F.D. properties file   722 does not exist.
 End of Minotr F.D. properties file   788 does not exist.

 **********************************************************************

            Population analysis using the SCF Density.

 **********************************************************************

 Alpha  occ. eigenvalues --  -24.73334  -1.19439  -0.52451  -0.44038  -0.44038
 Alpha  occ. eigenvalues --   -0.34291
 Alpha virt. eigenvalues --   -0.12245   0.25146   0.31674   0.90268   0.92725
 Alpha virt. eigenvalues --    0.92725   1.05266   1.15931   1.23645   1.23645
 Alpha virt. eigenvalues --    1.35868   1.35868   1.51737   2.11962   2.36718
 Alpha virt. eigenvalues --    3.67993   3.69967   3.69967   3.76645   3.76646
 Alpha virt. eigenvalues --    5.90857   5.96095   5.96095  66.50060
  Beta  occ. eigenvalues --  -24.70367  -1.10955  -0.41073  -0.41073  -0.34421
  Beta virt. eigenvalues --   -0.24451  -0.11481   0.26261   0.31844   0.94161
  Beta virt. eigenvalues --    0.94161   0.98425   1.08688   1.16880   1.23490
  Beta virt. eigenvalues --    1.23490   1.37049   1.37049   1.52573   2.13067
  Beta virt. eigenvalues --    2.36744   3.78181   3.78182   3.79193   3.79193
  Beta virt. eigenvalues --    3.81083   5.98610   5.98610   6.04112  66.53007
          Condensed to atoms (all electrons):
               1          2          3
     1  H    0.873105   0.085950   0.010655
     2  H    0.085950   0.891211  -0.000015
     3  F    0.010655  -0.000015   9.042503
          Atomic-Atomic Spin Densities.
               1          2          3
     1  H   -0.783787   0.009221  -0.005318
     2  H    0.009221   0.831545  -0.000075
     3  F   -0.005318  -0.000075   0.944586
 Mulliken charges and spin densities:
               1          2
     1  H    0.030290  -0.779884
     2  H    0.022853   0.840691
     3  F   -0.053143   0.939193
 Sum of Mulliken charges =  -0.00000   1.00000
 Mulliken charges and spin densities with hydrogens summed into heavy atoms:
               1          2
     3  F   -0.000000   1.000000
 APT charges:
               1
     1  H   -0.086342
     2  H    0.023670
     3  F    0.062672
 Sum of APT charges =  -0.00000
 APT charges with hydrogens summed into heavy atoms:
               1
     3  F   -0.000000
 Electronic spatial extent (au):  <R**2>=            273.7797
 Charge=             -0.0000 electrons
 Dipole moment (field-independent basis, Debye):
    X=             -0.9608    Y=              0.0000    Z=             -0.0000  Tot=              0.9608
 Quadrupole moment (field-independent basis, Debye-Ang):
   XX=             -7.6661   YY=             -7.6974   ZZ=             -7.6974
   XY=             -0.0000   XZ=              0.0000   YZ=              0.0000
 Traceless Quadrupole moment (field-independent basis, Debye-Ang):
   XX=              0.0209   YY=             -0.0104   ZZ=             -0.0104
   XY=             -0.0000   XZ=              0.0000   YZ=              0.0000
 Octapole moment (field-independent basis, Debye-Ang**2):
  XXX=            -33.4511  YYY=             -0.0000  ZZZ=              0.0000  XYY=            -10.7706
  XXY=             -0.0000  XXZ=              0.0000  XZZ=            -10.7706  YZZ=             -0.0000
  YYZ=              0.0000  XYZ=              0.0000
 Hexadecapole moment (field-independent basis, Debye-Ang**3):
 XXXX=           -227.6628 YYYY=             -6.4842 ZZZZ=             -6.4842 XXXY=             -0.0000
 XXXZ=              0.0000 YYYX=             -0.0000 YYYZ=              0.0000 ZZZX=              0.0000
 ZZZY=              0.0000 XXYY=            -44.0690 XXZZ=            -44.0690 YYZZ=             -2.1614
 XXYZ=              0.0000 YYXZ=              0.0000 ZZXY=             -0.0000
 N-N= 3.016543682424D+00 E-N=-2.470857967748D+02  KE= 1.005186082097D+02
  Exact polarizability:      61.634      -0.000       2.005       0.000       0.000       2.005
 Approx polarizability:      62.585      -0.000       1.933       0.000      -0.000       1.933
                          Isotropic Fermi Contact Couplings
        Atom                 a.u.       MegaHertz       Gauss      10(-4) cm-1
     1  H(1)              -0.23296   -1041.30801    -371.56459    -347.34296
     2  H(1)               0.25058    1120.04539     399.66005     373.60693
     3  F(19)              0.02468     103.81858      37.04505      34.63015
 --------------------------------------------------------
       Center         ----  Spin Dipole Couplings  ----
                      3XX-RR        3YY-RR        3ZZ-RR
 --------------------------------------------------------
     1   Atom        0.047273     -0.023636     -0.023636
     2   Atom       -0.025590      0.012795      0.012795
     3   Atom        5.935238     -2.967619     -2.967619
 --------------------------------------------------------
                        XY            XZ            YZ
 --------------------------------------------------------
     1   Atom        0.000000     -0.000000      0.000000
     2   Atom        0.000000     -0.000000      0.000000
     3   Atom       -0.000000      0.000000      0.000000
 --------------------------------------------------------


 ---------------------------------------------------------------------------------
              Anisotropic Spin Dipole Couplings in Principal Axis System
 ---------------------------------------------------------------------------------

       Atom             a.u.   MegaHertz   Gauss  10(-4) cm-1        Axes

              Baa    -0.0236   -12.611    -4.500    -4.207 -0.0000  0.9791 -0.2032
     1 H(1)   Bbb    -0.0236   -12.611    -4.500    -4.207  0.0000  0.2032  0.9791
              Bcc     0.0473    25.222     9.000     8.413  1.0000  0.0000 -0.0000
 
              Baa    -0.0256   -13.654    -4.872    -4.554  1.0000 -0.0000  0.0000
     2 H(1)   Bbb     0.0128     6.827     2.436     2.277  0.0000  0.9782 -0.2077
              Bcc     0.0128     6.827     2.436     2.277 -0.0000  0.2077  0.9782
 
              Baa    -2.9676 -1490.414  -531.817  -497.149  0.0000  0.9789 -0.2043
     3 F(19)  Bbb    -2.9676 -1490.414  -531.817  -497.149 -0.0000  0.2043  0.9789
              Bcc     5.9352  2980.829  1063.634   994.297  1.0000 -0.0000  0.0000
 

 ---------------------------------------------------------------------------------

 Calling FoFJK, ICntrl=    100127 FMM=F ISym2X=0 I1Cent= 0 IOpClX= 1 NMat=1 NMatS=1 NMatT=0.
 Full mass-weighted force constant matrix:
 Low frequencies ----1466.5590 -308.5249   -0.0022    0.0012    0.0015  123.6495
 Low frequencies ---  123.6495  614.6906  614.6906
 ******    2 imaginary frequencies (negative Signs) ****** 
 Diagonal vibrational polarizability:
       12.5944339       0.0280621       0.0280621
 Harmonic frequencies (cm**-1), IR intensities (KM/Mole), Raman scattering
 activities (A**4/AMU), depolarization ratios for plane and unpolarized
 incident light, reduced masses (AMU), force constants (mDyne/A),
 and normal coordinates:
                      1                      2                      3
                      A                      A                      A
 Frequencies --  -1466.5590              -308.5249               599.5932
 Red. masses --      1.0082                 1.1080                 1.0143
 Frc consts  --      1.2776                 0.0621                 0.2149
 IR Inten    --     68.0964                41.5340                 0.3749
  Atom  AN      X      Y      Z        X      Y      Z        X      Y      Z
     1   1     0.75  -0.00  -0.00     0.65   0.00  -0.00    -0.00   0.16   0.85
     2   1    -0.66   0.00   0.00     0.75  -0.00   0.00    -0.00  -0.09  -0.50
     3   9    -0.00   0.00   0.00    -0.07  -0.00   0.00     0.00  -0.00  -0.02
                      4
                      A
 Frequencies --    599.5932
 Red. masses --      1.0143
 Frc consts  --      0.2149
 IR Inten    --      0.3749
  Atom  AN      X      Y      Z
     1   1    -0.00   0.85  -0.16
     2   1    -0.00  -0.50   0.09
     3   9     0.00  -0.02   0.00

 -------------------
 - Thermochemistry -
 -------------------
 Temperature   298.150 Kelvin.  Pressure   1.00000 Atm.
 Atom     1 has atomic number  1 and mass   1.00783
 Atom     2 has atomic number  1 and mass   1.00783
 Atom     3 has atomic number  9 and mass  18.99840
 Molecular mass:    21.01405 amu.
 Principal axes and moments of inertia in atomic units:
                           1         2         3
     Eigenvalues --     0.00000  97.13949  97.13949
           X            1.00000  -0.00000   0.00000
           Y            0.00000   1.00000   0.00000
           Z            0.00000   0.00000   1.00000
 This molecule is a prolate symmetric top.
 Rotational symmetry number  1.
 Rotational temperature (Kelvin)      0.89164
 Rotational constant (GHZ):          18.578863
    2 imaginary frequencies ignored.
 Zero-point vibrational energy       7172.7 (Joules/Mol)
                                    1.71432 (Kcal/Mol)
 Warning -- explicit consideration of   2 degrees of freedom as
           vibrations may cause significant error
 Vibrational temperatures:    862.68   862.68
          (Kelvin)
 
 Zero-point correction=                           0.002732 (Hartree/Particle)
 Thermal correction to Energy=                    0.005413
 Thermal correction to Enthalpy=                  0.006357
 Thermal correction to Gibbs Free Energy=        -0.017819
 Sum of electronic and zero-point Energies=           -100.777852
 Sum of electronic and thermal Energies=              -100.775172
 Sum of electronic and thermal Enthalpies=            -100.774227
 Sum of electronic and thermal Free Energies=         -100.798404
 
                     E (Thermal)             CV                S
                      KCal/Mol        Cal/Mol-Kelvin    Cal/Mol-Kelvin
 Total                    3.397              7.033             50.884
 Electronic               0.000              0.000              1.377
 Translational            0.889              2.981             35.068
 Rotational               0.592              1.987             13.537
 Vibrational              1.915              2.065              0.901
 Vibration     1          0.958              1.033              0.450
 Vibration     2          0.958              1.033              0.450
                       Q            Log10(Q)             Ln(Q)
 Total Bot       0.157172D+09          8.196374         18.872850
 Total V=0       0.283780D+10          9.452982         21.766295
 Vib (Bot)       0.620702D-01         -1.207117         -2.779490
 Vib (Bot)    1  0.249139D+00         -0.603559         -1.389745
 Vib (Bot)    2  0.249139D+00         -0.603559         -1.389745
 Vib (V=0)       0.112070D+01          0.049490          0.113956
 Vib (V=0)    1  0.105863D+01          0.024745          0.056978
 Vib (V=0)    2  0.105863D+01          0.024745          0.056978
 Electronic      0.200000D+01          0.301030          0.693147
 Translational   0.378633D+07          6.578219         15.146908
 Rotational      0.334382D+03          2.524243          5.812284
 -------------------------------------------------------------------
 Center     Atomic                   Forces (Hartrees/Bohr)
 Number     Number              X              Y              Z
 -------------------------------------------------------------------
      1        1          -0.019797892    0.000000000   -0.000000000
      2        1           0.025497049    0.000000000   -0.000000000
      3        9          -0.005699156   -0.000000000    0.000000000
 -------------------------------------------------------------------
 Cartesian Forces:  Max     0.025497049 RMS     0.010926707

 GradGradGradGradGradGradGradGradGradGradGradGradGradGradGradGradGradGrad
 Berny optimization.
 Search for a local minimum.
 Step number   1 out of a maximum of    2
 All quantities printed in internal units (Hartrees-Bohrs-Radians)
 Second derivative matrix not updated -- analytic derivatives used.
 The second derivative matrix:
                          X1        Y1        Z1        X2        Y2
           X1          -0.04760
           Y1          -0.00000   0.00802
           Z1           0.00000  -0.00000   0.00802
           X2           0.03904  -0.00000  -0.00000  -0.03768
           Y2           0.00000  -0.00692  -0.00000  -0.00000   0.00692
           Z2          -0.00000  -0.00000  -0.00692   0.00000  -0.00000
           X3           0.00856   0.00000   0.00000  -0.00136  -0.00000
           Y3          -0.00000  -0.00110   0.00000   0.00000   0.00000
           Z3           0.00000   0.00000  -0.00110  -0.00000   0.00000
                          Z2        X3        Y3        Z3
           Z2           0.00692
           X3           0.00000  -0.00720
           Y3           0.00000  -0.00000   0.00110
           Z3           0.00000  -0.00000  -0.00000   0.00110
 ITU=  0
     Eigenvalues ---   -0.08244  -0.00742   0.01381   0.01381
 Eigenvalue     1 is  -8.24D-02 should be greater than     0.000000 Eigenvector:
                          X1        X2        X3        Y1        Y2
   1                    0.76765  -0.63944  -0.04274  -0.00000   0.00000
                          Y3        Z1        Z2        Z3
   1                    0.00000  -0.00000   0.00000   0.00000
 Eigenvalue     2 is  -7.42D-03 should be greater than     0.000000 Eigenvector:
                          X2        X1        X3        Y1        Y2
   1                    0.70725   0.56551  -0.42425   0.00000  -0.00000
                          Y3        Z1        Z2        Z3
   1                   -0.00000   0.00000  -0.00000  -0.00000
 Quadratic step=1.303D+00 exceeds max=3.000D-01 adjusted using Lamda=-4.559D-02.
 Angle between NR and scaled steps=  37.52 degrees.
 Angle between quadratic step and forces=  19.97 degrees.
 Linear search not attempted -- first point.
 B after Tr=    -0.042421   -0.000000   -0.000000
         Rot=    0.969672   -0.244409   -0.000000    0.000000 Ang= -28.29 deg.
 Variable       Old X    -DE/DX   Delta X   Delta X   Delta X     New X
                                 (Linear)    (Quad)   (Total)
    X1        0.00000  -0.01980   0.00000  -0.08870  -0.13112  -0.13112
    Y1        0.00000   0.00000   0.00000   0.00000   0.00000   0.00000
    Z1        0.00000  -0.00000   0.00000  -0.00000   0.00000   0.00000
    X2       -3.68497   0.02550   0.00000   0.27960   0.23718  -3.44779
    Y2        0.00000   0.00000   0.00000  -0.00000  -0.00000  -0.00000
    Z2        0.00000  -0.00000   0.00000   0.00000  -0.00000  -0.00000
    X3        5.19675  -0.00570   0.00000  -0.06363  -0.10605   5.09069
    Y3        0.00000  -0.00000   0.00000  -0.00000  -0.00000  -0.00000
    Z3        0.00000   0.00000   0.00000   0.00000  -0.00000  -0.00000
         Item               Value     Threshold  Converged?
 Maximum Force            0.025497     0.000450     NO 
 RMS     Force            0.010927     0.000300     NO 
 Maximum Displacement     0.237175     0.001800     NO 
 RMS     Displacement     0.097006     0.001200     NO 
 Predicted change in Energy=-1.181785D-02
 GradGradGradGradGradGradGradGradGradGradGradGradGradGradGradGradGradGrad


 ----------------------------------------------------------------------

 Electric dipole moment (input orientation):
 (Debye = 10**-18 statcoulomb cm , SI units = C m)
                  (au)            (Debye)         (10**-30 SI)
   Tot        0.378021D+00      0.960834D+00      0.320500D+01
   x         -0.378021D+00     -0.960834D+00     -0.320500D+01
   y          0.000000D+00      0.000000D+00      0.000000D+00
   z          0.000000D+00      0.000000D+00      0.000000D+00

 Dipole polarizability, Alpha (input orientation).
 (esu units = cm**3 , SI units = C**2 m**2 J**-1)
 Alpha(0;0):
               (au)            (10**-24 esu)      (10**-40 SI)
   iso        0.218809D+02      0.324242D+01      0.360768D+01
   aniso      0.596290D+02      0.883610D+01      0.983149D+01
   xx         0.616336D+02      0.913316D+01      0.101620D+02
   yx         0.000000D+00      0.000000D+00      0.000000D+00
   yy         0.200462D+01      0.297054D+00      0.330517D+00
   zx         0.000000D+00      0.000000D+00      0.000000D+00
   zy         0.000000D+00      0.000000D+00      0.000000D+00
   zz         0.200462D+01      0.297054D+00      0.330517D+00

 ----------------------------------------------------------------------

 Dipole orientation:
     1          0.00000000          0.00000000          0.00000000
     1          0.00000000         -0.00000000          3.68496594
     9         -0.00000000          0.00000000         -5.19674684

 Electric dipole moment (dipole orientation):
 (Debye = 10**-18 statcoulomb cm , SI units = C m)
                  (au)            (Debye)         (10**-30 SI)
   Tot        0.378021D+00      0.960834D+00      0.320500D+01
   x          0.000000D+00      0.000000D+00      0.000000D+00
   y          0.000000D+00      0.000000D+00      0.000000D+00
   z          0.378021D+00      0.960834D+00      0.320500D+01

 Dipole polarizability, Alpha (dipole orientation).
 (esu units = cm**3 , SI units = C**2 m**2 J**-1)
 Alpha(0;0):
               (au)            (10**-24 esu)      (10**-40 SI)
   iso        0.218809D+02      0.324242D+01      0.360768D+01
   aniso      0.596290D+02      0.883610D+01      0.983149D+01
   xx         0.200462D+01      0.297054D+00      0.330517D+00
   yx         0.000000D+00      0.000000D+00      0.000000D+00
   yy         0.200462D+01      0.297054D+00      0.330517D+00
   zx         0.000000D+00      0.000000D+00      0.000000D+00
   zy         0.000000D+00      0.000000D+00      0.000000D+00
   zz         0.616336D+02      0.913316D+01      0.101620D+02

 ----------------------------------------------------------------------
 Unable to Open any file for archive entry.
 1\1\GINC-DESKTOP-B3RIHJD\Freq\UB3LYP\6-311G(d,p)\F1H2(2)\GARYX\22-Aug-
 2025\0\\# sp b3lyp/6-311g** Force nosymm scf=(qc)\\Title Card Required
 \\0,2\H,0.,0.,0.\H,-1.95,0.,0.\F,2.75,0.,0.\\Version=ES64L-G16RevC.01\
 HF=-100.7805843\S2=1.359271\S2-1=0.\S2A=0.751406\RMSD=5.373e-10\RMSF=1
 .093e-02\ZeroPoint=0.0027319\Thermal=0.0054128\ETot=-100.7751715\HTot=
 -100.7742273\GTot=-100.7984037\Dipole=-0.3780213,0.,0.\DipoleDeriv=-0.
 3283291,0.,0.,0.,0.0346518,0.,0.,0.,0.0346518,0.0265125,0.,0.,0.,0.022
 2489,0.,0.,0.,0.0222489,0.3018166,0.,0.,0.,-0.0569007,0.,0.,0.,-0.0569
 007\Polar=61.6336028,0.,2.00462,0.,0.,2.00462\Quadrupole=0.0155039,-0.
 007752,-0.007752,0.,0.,0.\PG=C*V [C*(H1H1F1)]\NImag=2\\-0.04760157,0.,
 0.00801708,0.,0.,0.00801708,0.03904200,0.,0.,-0.03767771,0.,-0.0069188
 2,0.,0.,0.00691865,0.,0.,-0.00691882,0.,0.,0.00691865,0.00855957,0.,0.
 ,-0.00136429,0.,0.,-0.00719528,0.,-0.00109826,0.,0.,0.00000017,0.,0.,0
 .00109809,0.,0.,-0.00109826,0.,0.,0.00000017,0.,0.,0.00109809\\0.01979
 789,0.,0.,-0.02549705,0.,0.,0.00569916,0.,0.\\\@
 The archive entry for this job was punched.


 The best way to pay for a lovely moment is to enjoy it.
 -- Richard Bach
 Job cpu time:       0 days  0 hours  0 minutes 25.5 seconds.
 Elapsed time:       0 days  0 hours  0 minutes  3.5 seconds.
 File lengths (MBytes):  RWF=      6 Int=      0 D2E=      0 Chk=      1 Scr=      1
 Normal termination of Gaussian 16 at Fri Aug 22 18:33:33 2025.
