 Entering Gaussian System, Link 0=g16
 Initial command:
 /home/garyx/gaussian/g16/l1.exe "/tmp/gaussian_scratch/Gau-793251.inp" -scrdir="/tmp/gaussian_scratch/"
 Entering Link 1 = /home/garyx/gaussian/g16/l1.exe PID=    793253.
  
 Copyright (c) 1988-2019, Gaussian, Inc.  All Rights Reserved.
  
 This is part of the Gaussian(R) 16 program.  It is based on
 the Gaussian(R) 09 system (copyright 2009, Gaussian, Inc.),
 the Gaussian(R) 03 system (copyright 2003, Gaussian, Inc.),
 the Gaussian(R) 98 system (copyright 1998, Gaussian, Inc.),
 the Gaussian(R) 94 system (copyright 1995, Gaussian, Inc.),
 the Gaussian 92(TM) system (copyright 1992, Gaussian, Inc.),
 the Gaussian 90(TM) system (copyright 1990, Gaussian, Inc.),
 the Gaussian 88(TM) system (copyright 1988, Gaussian, Inc.),
 the Gaussian 86(TM) system (copyright 1986, Carnegie Mellon
 University), and the Gaussian 82(TM) system (copyright 1983,
 Carnegie Mellon University). Gaussian is a federally registered
 trademark of Gaussian, Inc.
  
 This software contains proprietary and confidential information,
 including trade secrets, belonging to Gaussian, Inc.
  
 This software is provided under written license and may be
 used, copied, transmitted, or stored only in accord with that
 written license.
  
 The following legend is applicable only to US Government
 contracts under FAR:
  
                    RESTRICTED RIGHTS LEGEND
  
 Use, reproduction and disclosure by the US Government is
 subject to restrictions as set forth in subparagraphs (a)
 and (c) of the Commercial Computer Software - Restricted
 Rights clause in FAR 52.227-19.
  
 Gaussian, Inc.
 340 Quinnipiac St., Bldg. 40, Wallingford CT 06492
  
  
 ---------------------------------------------------------------
 Warning -- This program may not be used in any manner that
 competes with the business of Gaussian, Inc. or will provide
 assistance to any competitor of Gaussian, Inc.  The licensee
 of this program is prohibited from giving any competitor of
 Gaussian, Inc. access to this program.  By using this program,
 the user acknowledges that Gaussian, Inc. is engaged in the
 business of creating and licensing software in the field of
 computational chemistry and represents and warrants to the
 licensee that it is not a competitor of Gaussian, Inc. and that
 it will not use this program in any manner prohibited above.
 ---------------------------------------------------------------
  

 Cite this work as:
 Gaussian 16, Revision C.01,
 M. J. Frisch, G. W. Trucks, H. B. Schlegel, G. E. Scuseria, 
 M. A. Robb, J. R. Cheeseman, G. Scalmani, V. Barone, 
 G. A. Petersson, H. Nakatsuji, X. Li, M. Caricato, A. V. Marenich, 
 J. Bloino, B. G. Janesko, R. Gomperts, B. Mennucci, H. P. Hratchian, 
 J. V. Ortiz, A. F. Izmaylov, J. L. Sonnenberg, D. Williams-Young, 
 F. Ding, F. Lipparini, F. Egidi, J. Goings, B. Peng, A. Petrone, 
 T. Henderson, D. Ranasinghe, V. G. Zakrzewski, J. Gao, N. Rega, 
 G. Zheng, W. Liang, M. Hada, M. Ehara, K. Toyota, R. Fukuda, 
 J. Hasegawa, M. Ishida, T. Nakajima, Y. Honda, O. Kitao, H. Nakai, 
 T. Vreven, K. Throssell, J. A. Montgomery, Jr., J. E. Peralta, 
 F. Ogliaro, M. J. Bearpark, J. J. Heyd, E. N. Brothers, K. N. Kudin, 
 V. N. Staroverov, T. A. Keith, R. Kobayashi, J. Normand, 
 K. Raghavachari, A. P. Rendell, J. C. Burant, S. S. Iyengar, 
 J. Tomasi, M. Cossi, J. M. Millam, M. Klene, C. Adamo, R. Cammi, 
 J. W. Ochterski, R. L. Martin, K. Morokuma, O. Farkas, 
 J. B. Foresman, and D. J. Fox, Gaussian, Inc., Wallingford CT, 2019.
 
 ******************************************
 Gaussian 16:  ES64L-G16RevC.01  3-Jul-2019
                22-Aug-2025 
 ******************************************
 %mem=10GB
 %nprocs=8
 Will use up to    8 processors via shared memory.
 -----------------------------------------
 # sp b3lyp/6-311g** Force nosymm scf=(qc)
 -----------------------------------------
 1/10=4,30=1,38=1/1,3;
 2/12=2,15=1,17=6,18=5,40=1/2;
 3/5=4,6=6,7=101,11=2,25=1,30=1,71=2,74=-5,140=1/1,2,3;
 4//1;
 5/5=2,8=3,38=5,98=1/8;
 8/6=4,10=90,11=11/1;
 11/6=1,8=1,9=11,15=111,16=1,31=1/1,2,10;
 10/6=1,31=1/2;
 6/7=2,8=2,9=2,10=2,28=1/1;
 7/8=1,10=1,25=1,30=1/1,2,3,16;
 1/10=4,30=1/3;
 99//99;
 -------------------
 Title Card Required
 -------------------
 Symbolic Z-matrix:
 Charge =  0 Multiplicity = 2
 H                     0.        0.        0. 
 H                    -2.05      0.        0. 
 F                     3.05      0.        0. 
 

 GradGradGradGradGradGradGradGradGradGradGradGradGradGradGradGradGradGrad
 Berny optimization.
 Initialization pass.
 Trust Radius=3.00D-01 FncErr=1.00D-07 GrdErr=1.00D-07 EigMax=2.50D+02 EigMin=1.00D-04
 Number of steps in this run=      2 maximum allowed number of steps=      2.
 GradGradGradGradGradGradGradGradGradGradGradGradGradGradGradGradGradGrad

                          Input orientation:                          
 ---------------------------------------------------------------------
 Center     Atomic      Atomic             Coordinates (Angstroms)
 Number     Number       Type             X           Y           Z
 ---------------------------------------------------------------------
      1          1           0        0.000000    0.000000    0.000000
      2          1           0       -2.050000    0.000000    0.000000
      3          9           0        3.050000    0.000000    0.000000
 ---------------------------------------------------------------------
                    Distance matrix (angstroms):
                    1          2          3
     1  H    0.000000
     2  H    2.050000   0.000000
     3  F    3.050000   5.100000   0.000000
 Symmetry turned off by external request.
 Stoichiometry    FH2(2)
 Framework group  C*V[C*(HHF)]
 Deg. of freedom     2
 Full point group                 C*V     NOp   4
 Rotational constants (GHZ):           0.0000000          15.6085717          15.6085717
 Standard basis: 6-311G(d,p) (5D, 7F)
    30 basis functions,    48 primitive gaussians,    31 cartesian basis functions
     6 alpha electrons        5 beta electrons
       nuclear repulsion energy         2.7534838858 Hartrees.
 NAtoms=    3 NActive=    3 NUniq=    3 SFac= 1.00D+00 NAtFMM=   60 NAOKFM=F Big=F
 Integral buffers will be    131072 words long.
 Raffenetti 2 integral format.
 Two-electron integral symmetry is turned off.
 One-electron integrals computed using PRISM.
 NBasis=    30 RedAO= T EigKep=  8.34D-02  NBF=    30
 NBsUse=    30 1.00D-06 EigRej= -1.00D+00 NBFU=    30
 ExpMin= 1.03D-01 ExpMax= 1.14D+04 ExpMxC= 1.72D+03 IAcc=3 IRadAn=         5 AccDes= 0.00D+00
 Harris functional with IExCor=  402 and IRadAn=       5 diagonalized for initial guess.
 HarFok:  IExCor=  402 AccDes= 0.00D+00 IRadAn=         5 IDoV= 1 UseB2=F ITyADJ=14
 ICtDFT=  3500011 ScaDFX=  1.000000  1.000000  1.000000  1.000000
 FoFCou: FMM=F IPFlag=           0 FMFlag=      100000 FMFlg1=           0
         NFxFlg=           0 DoJE=T BraDBF=F KetDBF=T FulRan=T
         wScrn=  0.000000 ICntrl=       500 IOpCl=  0 I1Cent=   200000004 NGrid=           0
         NMat0=    1 NMatS0=      1 NMatT0=    0 NMatD0=    1 NMtDS0=    0 NMtDT0=    0
 Symmetry not used in FoFCou.
 Initial guess <Sx>= 0.0000 <Sy>= 0.0000 <Sz>= 0.5000 <S**2>= 0.7500 S= 0.5000
 Keep R1 and R2 ints in memory in canonical form, NReq=7127049.
 Gradient too large for Newton-Raphson -- use scaled steepest descent instead.
  Beta Gap=    -0.575 HL deriv= 4.09D-15 Rot set to   9.93D-01
     Minimum is close to point  3 DX=  2.26D-02 DF= -7.12D-04 DXR=  5.35D-02 DFR=  4.19D-03 which will be used.
 Gradient too large for Newton-Raphson -- use scaled steepest descent instead.
     Accept linear search using points  4 and  5.
 Gradient too large for Newton-Raphson -- use scaled steepest descent instead.
     Minimum is close to point  2 DX=  5.86D-03 DF= -1.88D-06 DXR=  8.30D-03 DFR=  6.88D-05 which will be used.
 Gradient too large for Newton-Raphson -- use scaled steepest descent instead.
     Accept linear search using points  2 and  3.
 Gradient too large for Newton-Raphson -- use scaled steepest descent instead.
     Accept linear search using points  1 and  2.
 Gradient too large for Newton-Raphson -- use scaled steepest descent instead.
     Accept linear search using points  1 and  2.
 Gradient too large for Newton-Raphson -- use scaled steepest descent instead.
     Accept linear search using points  1 and  2.
 Gradient too large for Newton-Raphson -- use scaled steepest descent instead.
 Gradient too large for Newton-Raphson -- use scaled steepest descent instead.
     Minimum is close to point  3 DX=  2.01D-02 DF= -1.95D-06 DXR=  1.65D-02 DFR=  2.95D-04 which will be used.
 Gradient too large for Newton-Raphson -- use scaled steepest descent instead.
     Minimum is close to point  3 DX=  7.66D-03 DF= -4.04D-07 DXR=  1.08D-02 DFR=  1.17D-04 which will be used.
 Gradient too large for Newton-Raphson -- use scaled steepest descent instead.
 Gradient too large for Newton-Raphson -- use scaled steepest descent instead.
     Accept linear search using points  1 and  2.
 Gradient too large for Newton-Raphson -- use scaled steepest descent instead.
 Gradient too large for Newton-Raphson -- use scaled steepest descent instead.
     Accept linear search using points  1 and  2.
 LinEq1:  Iter=  0 NonCon=     1 RMS=7.20D-04 Max=7.84D-03 NDo=     1
 AX will form     1 AO Fock derivatives at one time.
 LinEq1:  Iter=  1 NonCon=     1 RMS=2.33D-04 Max=1.91D-03 NDo=     1
 LinEq1:  Iter=  2 NonCon=     1 RMS=1.46D-04 Max=1.77D-03 NDo=     1
 LinEq1:  Iter=  3 NonCon=     1 RMS=3.92D-05 Max=3.60D-04 NDo=     1
 LinEq1:  Iter=  4 NonCon=     1 RMS=5.99D-06 Max=6.82D-05 NDo=     1
 LinEq1:  Iter=  5 NonCon=     1 RMS=2.55D-06 Max=2.74D-05 NDo=     1
 LinEq1:  Iter=  6 NonCon=     1 RMS=4.72D-07 Max=3.96D-06 NDo=     1
 LinEq1:  Iter=  7 NonCon=     1 RMS=1.58D-08 Max=1.33D-07 NDo=     1
 LinEq1:  Iter=  8 NonCon=     0 RMS=1.39D-09 Max=8.32D-09 NDo=     1
 Linear equations converged to 1.640D-09 1.640D-08 after     8 iterations.
 Incorrect curvature in search direction -- initial direction reversed.
 Gradient too large for Newton-Raphson -- use scaled steepest descent instead.
 LinEq1:  Iter=  0 NonCon=     1 RMS=5.90D-04 Max=5.84D-03 NDo=     1
 LinEq1:  Iter=  1 NonCon=     1 RMS=7.07D-04 Max=9.11D-03 NDo=     1
 LinEq1:  Iter=  2 NonCon=     1 RMS=2.78D-04 Max=3.57D-03 NDo=     1
 LinEq1:  Iter=  3 NonCon=     1 RMS=4.12D-05 Max=5.16D-04 NDo=     1
 LinEq1:  Iter=  4 NonCon=     1 RMS=1.22D-05 Max=1.38D-04 NDo=     1
 LinEq1:  Iter=  5 NonCon=     1 RMS=2.35D-06 Max=1.69D-05 NDo=     1
 LinEq1:  Iter=  6 NonCon=     1 RMS=2.56D-07 Max=2.37D-06 NDo=     1
 LinEq1:  Iter=  7 NonCon=     1 RMS=1.99D-08 Max=1.37D-07 NDo=     1
 LinEq1:  Iter=  8 NonCon=     1 RMS=5.39D-09 Max=5.75D-08 NDo=     1
 LinEq1:  Iter=  9 NonCon=     1 RMS=2.01D-09 Max=2.90D-08 NDo=     1
 LinEq1:  Iter= 10 NonCon=     0 RMS=5.84D-10 Max=2.98D-09 NDo=     1
 Linear equations converged to 1.640D-09 1.640D-08 after    10 iterations.
 Incorrect curvature in search direction -- initial direction reversed.
 Gradient too large for Newton-Raphson -- use scaled steepest descent instead.
     Minimum is close to point  2 DX=  6.18D-03 DF= -4.53D-09 DXR=  7.66D-03 DFR=  5.87D-05 which will be used.
 LinEq1:  Iter=  0 NonCon=     1 RMS=7.31D-04 Max=9.98D-03 NDo=     1
 LinEq1:  Iter=  1 NonCon=     1 RMS=4.43D-04 Max=4.80D-03 NDo=     1
 LinEq1:  Iter=  2 NonCon=     1 RMS=1.94D-04 Max=1.96D-03 NDo=     1
 LinEq1:  Iter=  3 NonCon=     1 RMS=4.07D-05 Max=3.89D-04 NDo=     1
 LinEq1:  Iter=  4 NonCon=     1 RMS=4.32D-06 Max=4.21D-05 NDo=     1
 LinEq1:  Iter=  5 NonCon=     1 RMS=6.22D-07 Max=6.15D-06 NDo=     1
 LinEq1:  Iter=  6 NonCon=     1 RMS=5.99D-08 Max=4.55D-07 NDo=     1
 LinEq1:  Iter=  7 NonCon=     1 RMS=1.40D-08 Max=9.03D-08 NDo=     1
 LinEq1:  Iter=  8 NonCon=     1 RMS=2.50D-09 Max=3.25D-08 NDo=     1
 LinEq1:  Iter=  9 NonCon=     0 RMS=1.12D-09 Max=1.06D-08 NDo=     1
 Linear equations converged to 1.640D-09 1.640D-08 after     9 iterations.
 Gradient too large for Newton-Raphson -- use scaled steepest descent instead.
 LinEq1:  Iter=  0 NonCon=     1 RMS=2.55D-04 Max=2.53D-03 NDo=     1
 LinEq1:  Iter=  1 NonCon=     1 RMS=2.93D-04 Max=3.27D-03 NDo=     1
 LinEq1:  Iter=  2 NonCon=     1 RMS=8.56D-05 Max=7.82D-04 NDo=     1
 LinEq1:  Iter=  3 NonCon=     1 RMS=1.88D-05 Max=2.30D-04 NDo=     1
 LinEq1:  Iter=  4 NonCon=     1 RMS=5.92D-06 Max=6.73D-05 NDo=     1
 LinEq1:  Iter=  5 NonCon=     1 RMS=4.04D-07 Max=3.66D-06 NDo=     1
 LinEq1:  Iter=  6 NonCon=     1 RMS=7.54D-08 Max=6.92D-07 NDo=     1
 LinEq1:  Iter=  7 NonCon=     1 RMS=9.60D-09 Max=1.04D-07 NDo=     1
 LinEq1:  Iter=  8 NonCon=     1 RMS=2.04D-09 Max=1.41D-08 NDo=     1
 LinEq1:  Iter=  9 NonCon=     0 RMS=3.38D-10 Max=4.62D-09 NDo=     1
 Linear equations converged to 1.640D-09 1.640D-08 after     9 iterations.
 LinEq1:  Iter=  0 NonCon=     1 RMS=2.44D-04 Max=2.59D-03 NDo=     1
 LinEq1:  Iter=  1 NonCon=     1 RMS=1.83D-04 Max=1.79D-03 NDo=     1
 LinEq1:  Iter=  2 NonCon=     1 RMS=1.25D-04 Max=1.52D-03 NDo=     1
 LinEq1:  Iter=  3 NonCon=     1 RMS=2.23D-05 Max=2.60D-04 NDo=     1
 LinEq1:  Iter=  4 NonCon=     1 RMS=5.87D-06 Max=8.30D-05 NDo=     1
 LinEq1:  Iter=  5 NonCon=     1 RMS=1.84D-06 Max=1.84D-05 NDo=     1
 LinEq1:  Iter=  6 NonCon=     1 RMS=2.32D-07 Max=1.99D-06 NDo=     1
 LinEq1:  Iter=  7 NonCon=     1 RMS=2.74D-08 Max=1.71D-07 NDo=     1
 LinEq1:  Iter=  8 NonCon=     1 RMS=3.94D-09 Max=4.16D-08 NDo=     1
 LinEq1:  Iter=  9 NonCon=     0 RMS=9.14D-10 Max=7.37D-09 NDo=     1
 Linear equations converged to 1.640D-09 1.640D-08 after     9 iterations.
     Accept linear search using points  2 and  3.
 LinEq1:  Iter=  0 NonCon=     1 RMS=8.63D-05 Max=7.61D-04 NDo=     1
 LinEq1:  Iter=  1 NonCon=     1 RMS=2.17D-05 Max=2.18D-04 NDo=     1
 LinEq1:  Iter=  2 NonCon=     1 RMS=2.17D-05 Max=2.20D-04 NDo=     1
 LinEq1:  Iter=  3 NonCon=     1 RMS=1.33D-05 Max=1.43D-04 NDo=     1
 LinEq1:  Iter=  4 NonCon=     1 RMS=4.17D-06 Max=4.29D-05 NDo=     1
 LinEq1:  Iter=  5 NonCon=     1 RMS=1.04D-06 Max=9.89D-06 NDo=     1
 LinEq1:  Iter=  6 NonCon=     1 RMS=1.22D-07 Max=1.12D-06 NDo=     1
 LinEq1:  Iter=  7 NonCon=     1 RMS=1.78D-08 Max=1.54D-07 NDo=     1
 LinEq1:  Iter=  8 NonCon=     1 RMS=4.04D-09 Max=3.68D-08 NDo=     1
 LinEq1:  Iter=  9 NonCon=     0 RMS=5.07D-10 Max=4.68D-09 NDo=     1
 Linear equations converged to 1.640D-09 1.640D-08 after     9 iterations.
     Minimum is close to point  2 DX=  9.11D-02 DF= -3.21D-08 DXR=  8.35D-02 DFR=  7.01D-03 which will be used.
 LinEq1:  Iter=  0 NonCon=     1 RMS=3.55D-06 Max=3.96D-05 NDo=     1
 LinEq1:  Iter=  1 NonCon=     1 RMS=2.46D-06 Max=2.66D-05 NDo=     1
 LinEq1:  Iter=  2 NonCon=     1 RMS=1.49D-06 Max=1.23D-05 NDo=     1
 LinEq1:  Iter=  3 NonCon=     1 RMS=3.90D-07 Max=3.75D-06 NDo=     1
 LinEq1:  Iter=  4 NonCon=     1 RMS=9.23D-08 Max=6.83D-07 NDo=     1
 LinEq1:  Iter=  5 NonCon=     1 RMS=1.30D-08 Max=1.28D-07 NDo=     1
 LinEq1:  Iter=  6 NonCon=     1 RMS=2.51D-09 Max=1.89D-08 NDo=     1
 LinEq1:  Iter=  7 NonCon=     0 RMS=4.12D-10 Max=2.63D-09 NDo=     1
 Linear equations converged to 9.127D-10 9.127D-09 after     7 iterations.
 LinEq1:  Iter=  0 NonCon=     1 RMS=1.72D-07 Max=1.99D-06 NDo=     1
 LinEq1:  Iter=  1 NonCon=     1 RMS=4.67D-08 Max=3.33D-07 NDo=     1
 LinEq1:  Iter=  2 NonCon=     1 RMS=3.89D-08 Max=3.35D-07 NDo=     1
 LinEq1:  Iter=  3 NonCon=     1 RMS=2.25D-08 Max=2.64D-07 NDo=     1
 LinEq1:  Iter=  4 NonCon=     1 RMS=7.98D-09 Max=5.80D-08 NDo=     1
 LinEq1:  Iter=  5 NonCon=     1 RMS=1.05D-09 Max=1.14D-08 NDo=     1
 LinEq1:  Iter=  6 NonCon=     1 RMS=3.46D-10 Max=4.08D-09 NDo=     1
 LinEq1:  Iter=  7 NonCon=     1 RMS=7.74D-11 Max=5.54D-10 NDo=     1
 LinEq1:  Iter=  8 NonCon=     0 RMS=9.98D-12 Max=6.27D-11 NDo=     1
 Linear equations converged to 6.987D-11 6.987D-10 after     8 iterations.
 SCF Done:  E(UB3LYP) =  -100.773995487     a.u. after   26 cycles
            Convg  =    0.6499D-07                   138 Fock formations.
              S**2 =  1.4631                  -V/T =  2.0023
 <Sx>= 0.0000 <Sy>= 0.0000 <Sz>= 0.5000 <S**2>= 1.4631 S= 0.8088
 <L.S>=  0.00000000000    
 Annihilation of the first spin contaminant:
 S**2 before annihilation     1.4631,   after     0.7518
 DoSCS=F DFT=T ScalE2(SS,OS)=  1.000000  1.000000
 Range of M.O.s used for correlation:     1    30
 NBasis=    30 NAE=     6 NBE=     5 NFC=     0 NFV=     0
 NROrb=     30 NOA=     6 NOB=     5 NVA=    24 NVB=    25

 **** Warning!!: The smallest beta delta epsilon is  0.86929387D-01

 Symmetrizing basis deriv contribution to polar:
 IMax=3 JMax=2 DiffMx= 0.00D+00
 G2DrvN: will do     4 centers at a time, making    1 passes.
 Calling FoFCou, ICntrl=  3107 FMM=F I1Cent=   0 AccDes= 0.00D+00.
 End of G2Drv F.D. properties file   721 does not exist.
 End of G2Drv F.D. properties file   722 does not exist.
 End of G2Drv F.D. properties file   788 does not exist.
          IDoAtm=111
          Differentiating once with respect to electric field.
                with respect to dipole field.
          Differentiating once with respect to nuclear coordinates.
 Keep R1 and R2 ints in memory in canonical form, NReq=7101519.
          There are    12 degrees of freedom in the 1st order CPHF.  IDoFFX=6 NUNeed=     3.
      9 vectors produced by pass  0 Test12= 2.24D-15 8.33D-09 XBig12= 2.10D+02 1.29D+01.
 AX will form     9 AO Fock derivatives at one time.
      9 vectors produced by pass  1 Test12= 2.24D-15 8.33D-09 XBig12= 3.16D+00 8.80D-01.
      9 vectors produced by pass  2 Test12= 2.24D-15 8.33D-09 XBig12= 1.87D-01 2.82D-01.
      9 vectors produced by pass  3 Test12= 2.24D-15 8.33D-09 XBig12= 1.02D-03 1.69D-02.
      7 vectors produced by pass  4 Test12= 2.24D-15 8.33D-09 XBig12= 7.65D-06 8.84D-04.
      5 vectors produced by pass  5 Test12= 2.24D-15 8.33D-09 XBig12= 2.95D-08 7.75D-05.
      1 vectors produced by pass  6 Test12= 2.24D-15 8.33D-09 XBig12= 5.66D-11 2.90D-06.
      1 vectors produced by pass  7 Test12= 2.24D-15 8.33D-09 XBig12= 7.45D-14 1.07D-07.
 InvSVY:  IOpt=1 It=  1 EMax= 1.14D-15
 Solved reduced A of dimension    50 with     9 vectors.
 Isotropic polarizability for W=    0.000000       20.17 Bohr**3.
 End of Minotr F.D. properties file   721 does not exist.
 End of Minotr F.D. properties file   722 does not exist.
 End of Minotr F.D. properties file   788 does not exist.

 **********************************************************************

            Population analysis using the SCF Density.

 **********************************************************************

 Alpha  occ. eigenvalues --  -24.74487  -1.20513  -0.53606  -0.45010  -0.45010
 Alpha  occ. eigenvalues --   -0.33560
 Alpha virt. eigenvalues --   -0.11557   0.25558   0.32104   0.89417   0.92030
 Alpha virt. eigenvalues --    0.92030   1.03663   1.18728   1.24388   1.24388
 Alpha virt. eigenvalues --    1.37225   1.37225   1.48535   2.12634   2.36213
 Alpha virt. eigenvalues --    3.66741   3.68819   3.68819   3.75657   3.75657
 Alpha virt. eigenvalues --    5.88964   5.95086   5.95086  66.48665
  Beta  occ. eigenvalues --  -24.71437  -1.11766  -0.41956  -0.41956  -0.33750
  Beta virt. eigenvalues --   -0.25058  -0.10933   0.25895   0.32724   0.93498
  Beta virt. eigenvalues --    0.93498   0.98224   1.07604   1.18613   1.24118
  Beta virt. eigenvalues --    1.24118   1.38189   1.38189   1.49294   2.13793
  Beta virt. eigenvalues --    2.35918   3.77235   3.77235   3.78309   3.78309
  Beta virt. eigenvalues --    3.80268   5.97670   5.97670   6.02617  66.51698
          Condensed to atoms (all electrons):
               1          2          3
     1  H    0.910403   0.067443   0.005462
     2  H    0.067443   0.919771  -0.000003
     3  F    0.005462  -0.000003   9.024023
          Atomic-Atomic Spin Densities.
               1          2          3
     1  H   -0.851100   0.005503  -0.002506
     2  H    0.005503   0.876086  -0.000019
     3  F   -0.002506  -0.000019   0.969057
 Mulliken charges and spin densities:
               1          2
     1  H    0.016692  -0.848102
     2  H    0.012789   0.881571
     3  F   -0.029481   0.966532
 Sum of Mulliken charges =  -0.00000   1.00000
 Mulliken charges and spin densities with hydrogens summed into heavy atoms:
               1          2
     3  F   -0.000000   1.000000
 APT charges:
               1
     1  H   -0.065971
     2  H    0.011090
     3  F    0.054881
 Sum of APT charges =  -0.00000
 APT charges with hydrogens summed into heavy atoms:
               1
     3  F   -0.000000
 Electronic spatial extent (au):  <R**2>=            330.8916
 Charge=             -0.0000 electrons
 Dipole moment (field-independent basis, Debye):
    X=             -0.5861    Y=              0.0000    Z=             -0.0000  Tot=              0.5861
 Quadrupole moment (field-independent basis, Debye-Ang):
   XX=             -7.3270   YY=             -7.7059   ZZ=             -7.7059
   XY=             -0.0000   XZ=              0.0000   YZ=              0.0000
 Traceless Quadrupole moment (field-independent basis, Debye-Ang):
   XX=              0.2526   YY=             -0.1263   ZZ=             -0.1263
   XY=             -0.0000   XZ=              0.0000   YZ=              0.0000
 Octapole moment (field-independent basis, Debye-Ang**2):
  XXX=            -34.4771  YYY=             -0.0000  ZZZ=              0.0000  XYY=            -11.9713
  XXY=             -0.0000  XXZ=              0.0000  XZZ=            -11.9713  YZZ=             -0.0000
  YYZ=              0.0000  XYZ=              0.0000
 Hexadecapole moment (field-independent basis, Debye-Ang**3):
 XXXX=           -270.4248 YYYY=             -6.5235 ZZZZ=             -6.5235 XXXY=             -0.0000
 XXXZ=              0.0000 YYYX=             -0.0000 YYYZ=              0.0000 ZZZX=              0.0000
 ZZZY=              0.0000 XXYY=            -53.0163 XXZZ=            -53.0163 YYZZ=             -2.1745
 XXYZ=              0.0000 YYXZ=              0.0000 ZZXY=             -0.0000
 N-N= 2.753483885783D+00 E-N=-2.464919467763D+02  KE= 1.005429195998D+02
  Exact polarizability:      56.495      -0.000       2.006       0.000       0.000       2.006
 Approx polarizability:      50.405      -0.000       1.930       0.000      -0.000       1.930
                          Isotropic Fermi Contact Couplings
        Atom                 a.u.       MegaHertz       Gauss      10(-4) cm-1
     1  H(1)              -0.25319   -1131.72241    -403.82670    -377.50196
     2  H(1)               0.26251    1173.38528     418.69305     391.39920
     3  F(19)              0.02823     118.77715      42.38264      39.61979
 --------------------------------------------------------
       Center         ----  Spin Dipole Couplings  ----
                      3XX-RR        3YY-RR        3ZZ-RR
 --------------------------------------------------------
     1   Atom        0.040573     -0.020286     -0.020286
     2   Atom       -0.025146      0.012573      0.012573
     3   Atom        6.092700     -3.046350     -3.046350
 --------------------------------------------------------
                        XY            XZ            YZ
 --------------------------------------------------------
     1   Atom        0.000000     -0.000000      0.000000
     2   Atom        0.000000     -0.000000      0.000000
     3   Atom       -0.000001      0.000001     -0.000000
 --------------------------------------------------------


 ---------------------------------------------------------------------------------
              Anisotropic Spin Dipole Couplings in Principal Axis System
 ---------------------------------------------------------------------------------

       Atom             a.u.   MegaHertz   Gauss  10(-4) cm-1        Axes

              Baa    -0.0203   -10.824    -3.862    -3.610 -0.0000  0.8826 -0.4702
     1 H(1)   Bbb    -0.0203   -10.824    -3.862    -3.610 -0.0000  0.4702  0.8826
              Bcc     0.0406    21.648     7.724     7.221  1.0000  0.0000 -0.0000
 
              Baa    -0.0251   -13.417    -4.787    -4.475  1.0000 -0.0000  0.0000
     2 H(1)   Bbb     0.0126     6.708     2.394     2.238  0.0000  0.8832 -0.4690
              Bcc     0.0126     6.708     2.394     2.238 -0.0000  0.4690  0.8832
 
              Baa    -3.0464 -1529.955  -545.926  -510.338 -0.0000  0.4689  0.8833
     3 F(19)  Bbb    -3.0463 -1529.955  -545.926  -510.338  0.0000  0.8833 -0.4689
              Bcc     6.0927  3059.910  1091.852  1020.676  1.0000 -0.0000  0.0000
 

 ---------------------------------------------------------------------------------

 Calling FoFJK, ICntrl=    100127 FMM=F ISym2X=0 I1Cent= 0 IOpClX= 1 NMat=1 NMatS=1 NMatT=0.
 Full mass-weighted force constant matrix:
 Low frequencies ----1277.2359 -229.0876   -0.0025   -0.0024   -0.0011   84.8595
 Low frequencies ---   84.8595  522.5093  522.5093
 ******    2 imaginary frequencies (negative Signs) ****** 
 Diagonal vibrational polarizability:
       13.5252712       0.0119268       0.0119268
 Harmonic frequencies (cm**-1), IR intensities (KM/Mole), Raman scattering
 activities (A**4/AMU), depolarization ratios for plane and unpolarized
 incident light, reduced masses (AMU), force constants (mDyne/A),
 and normal coordinates:
                      1                      2                      3
                      A                      A                      A
 Frequencies --  -1277.2359              -229.0876               508.8634
 Red. masses --      1.0080                 1.1083                 1.0138
 Frc consts  --      0.9688                 0.0343                 0.1547
 IR Inten    --     31.5776                25.3606                 0.1148
  Atom  AN      X      Y      Z        X      Y      Z        X      Y      Z
     1   1     0.74  -0.00   0.00     0.67  -0.00   0.00    -0.00   0.36   0.78
     2   1    -0.68   0.00  -0.00     0.74   0.00  -0.00     0.00  -0.21  -0.47
     3   9    -0.00   0.00  -0.00    -0.07   0.00  -0.00     0.00  -0.01  -0.02
                      4
                      A
 Frequencies --    508.8634
 Red. masses --      1.0138
 Frc consts  --      0.1547
 IR Inten    --      0.1148
  Atom  AN      X      Y      Z
     1   1     0.00   0.78  -0.36
     2   1     0.00  -0.47   0.21
     3   9    -0.00  -0.02   0.01

 -------------------
 - Thermochemistry -
 -------------------
 Temperature   298.150 Kelvin.  Pressure   1.00000 Atm.
 Atom     1 has atomic number  1 and mass   1.00783
 Atom     2 has atomic number  1 and mass   1.00783
 Atom     3 has atomic number  9 and mass  18.99840
 Molecular mass:    21.01405 amu.
 Principal axes and moments of inertia in atomic units:
                           1         2         3
     Eigenvalues --     0.00000 115.62501 115.62501
           X            1.00000  -0.00000   0.00000
           Y            0.00000   1.00000   0.00000
           Z            0.00000   0.00000   1.00000
 This molecule is a prolate symmetric top.
 Rotational symmetry number  1.
 Rotational temperature (Kelvin)      0.74909
 Rotational constant (GHZ):          15.608572
    2 imaginary frequencies ignored.
 Zero-point vibrational energy       6087.4 (Joules/Mol)
                                    1.45491 (Kcal/Mol)
 Warning -- explicit consideration of   2 degrees of freedom as
           vibrations may cause significant error
 Vibrational temperatures:    732.14   732.14
          (Kelvin)
 
 Zero-point correction=                           0.002319 (Hartree/Particle)
 Thermal correction to Energy=                    0.005114
 Thermal correction to Enthalpy=                  0.006058
 Thermal correction to Gibbs Free Energy=        -0.018459
 Sum of electronic and zero-point Energies=           -100.771677
 Sum of electronic and thermal Energies=              -100.768881
 Sum of electronic and thermal Enthalpies=            -100.767937
 Sum of electronic and thermal Free Energies=         -100.792455
 
                     E (Thermal)             CV                S
                      KCal/Mol        Cal/Mol-Kelvin    Cal/Mol-Kelvin
 Total                    3.209              7.429             51.602
 Electronic               0.000              0.000              1.377
 Translational            0.889              2.981             35.068
 Rotational               0.592              1.987             13.884
 Vibrational              1.728              2.461              1.273
 Vibration     1          0.864              1.230              0.636
 Vibration     2          0.864              1.230              0.636
                       Q            Log10(Q)             Ln(Q)
 Total Bot       0.309468D+09          8.490616         19.550366
 Total V=0       0.360641D+10          9.557075         22.005979
 Vib (Bot)       0.102676D+00         -0.988531         -2.276177
 Vib (Bot)    1  0.320431D+00         -0.494266         -1.138089
 Vib (Bot)    2  0.320431D+00         -0.494266         -1.138089
 Vib (V=0)       0.119654D+01          0.077928          0.179435
 Vib (V=0)    1  0.109387D+01          0.038964          0.089718
 Vib (V=0)    2  0.109387D+01          0.038964          0.089718
 Electronic      0.200000D+01          0.301030          0.693147
 Translational   0.378633D+07          6.578219         15.146908
 Rotational      0.398014D+03          2.599899          5.986488
 -------------------------------------------------------------------
 Center     Atomic                   Forces (Hartrees/Bohr)
 Number     Number              X              Y              Z
 -------------------------------------------------------------------
      1        1          -0.016824175    0.000000000   -0.000000000
      2        1           0.019666498    0.000000000   -0.000000000
      3        9          -0.002842323   -0.000000000    0.000000000
 -------------------------------------------------------------------
 Cartesian Forces:  Max     0.019666498 RMS     0.008678856

 GradGradGradGradGradGradGradGradGradGradGradGradGradGradGradGradGradGrad
 Berny optimization.
 Search for a local minimum.
 Step number   1 out of a maximum of    2
 All quantities printed in internal units (Hartrees-Bohrs-Radians)
 Second derivative matrix not updated -- analytic derivatives used.
 The second derivative matrix:
                          X1        Y1        Z1        X2        Y2
           X1          -0.03447
           Y1           0.00000   0.00558
           Z1          -0.00000  -0.00000   0.00558
           X2           0.03010  -0.00000   0.00000  -0.02955
           Y2           0.00000  -0.00508  -0.00000  -0.00000   0.00508
           Z2          -0.00000  -0.00000  -0.00508   0.00000  -0.00000
           X3           0.00437  -0.00000   0.00000  -0.00055  -0.00000
           Y3          -0.00000  -0.00051   0.00000   0.00000  -0.00000
           Z3           0.00000   0.00000  -0.00051  -0.00000   0.00000
                          Z2        X3        Y3        Z3
           Z2           0.00508
           X3           0.00000  -0.00382
           Y3           0.00000   0.00000   0.00051
           Z3          -0.00000  -0.00000  -0.00000   0.00051
 ITU=  0
     Eigenvalues ---   -0.06234  -0.00410   0.00990   0.00990
 Eigenvalue     1 is  -6.23D-02 should be greater than     0.000000 Eigenvector:
                          X1        X2        X3        Z1        Y1
   1                    0.74650  -0.66483  -0.02722   0.00000  -0.00000
                          Z2        Y2        Z3        Y3
   1                   -0.00000   0.00000  -0.00000   0.00000
 Eigenvalue     2 is  -4.10D-03 should be greater than     0.000000 Eigenvector:
                          X2        X1        X3        Y1        Z1
   1                    0.68344   0.59315  -0.42553  -0.00000   0.00000
                          Y2        Z2        Y3        Z3
   1                    0.00000  -0.00000   0.00000  -0.00000
 Quadratic step=1.210D+00 exceeds max=3.000D-01 adjusted using Lamda=-3.187D-02.
 Angle between NR and scaled steps=  44.61 degrees.
 Angle between quadratic step and forces=  15.67 degrees.
 Linear search not attempted -- first point.
 B after Tr=    -0.031916   -0.000000   -0.000000
         Rot=    0.924436   -0.381338    0.000000    0.000000 Ang= -44.83 deg.
 Variable       Old X    -DE/DX   Delta X   Delta X   Delta X     New X
                                 (Linear)    (Quad)   (Total)
    X1        0.00000  -0.01682   0.00000  -0.12548  -0.15739  -0.15739
    Y1        0.00000   0.00000   0.00000   0.00000   0.00000   0.00000
    Z1        0.00000  -0.00000   0.00000  -0.00000   0.00000   0.00000
    X2       -3.87394   0.01967   0.00000   0.26910   0.23718  -3.63675
    Y2        0.00000   0.00000   0.00000  -0.00000  -0.00000  -0.00000
    Z2        0.00000  -0.00000   0.00000   0.00000  -0.00000  -0.00000
    X3        5.76366  -0.00284   0.00000  -0.04787  -0.07979   5.68388
    Y3        0.00000  -0.00000   0.00000  -0.00000  -0.00000  -0.00000
    Z3        0.00000   0.00000   0.00000   0.00000  -0.00000  -0.00000
         Item               Value     Threshold  Converged?
 Maximum Force            0.019666     0.000450     NO 
 RMS     Force            0.008679     0.000300     NO 
 Maximum Displacement     0.237184     0.001800     NO 
 RMS     Displacement     0.098543     0.001200     NO 
 Predicted change in Energy=-9.867932D-03
 GradGradGradGradGradGradGradGradGradGradGradGradGradGradGradGradGradGrad


 ----------------------------------------------------------------------

 Electric dipole moment (input orientation):
 (Debye = 10**-18 statcoulomb cm , SI units = C m)
                  (au)            (Debye)         (10**-30 SI)
   Tot        0.230570D+00      0.586051D+00      0.195486D+01
   x         -0.230570D+00     -0.586051D+00     -0.195486D+01
   y          0.000000D+00      0.000000D+00      0.000000D+00
   z          0.000000D+00      0.000000D+00      0.000000D+00

 Dipole polarizability, Alpha (input orientation).
 (esu units = cm**3 , SI units = C**2 m**2 J**-1)
 Alpha(0;0):
               (au)            (10**-24 esu)      (10**-40 SI)
   iso        0.201690D+02      0.298874D+01      0.332542D+01
   aniso      0.544888D+02      0.807440D+01      0.898399D+01
   xx         0.564948D+02      0.837167D+01      0.931474D+01
   yx         0.000000D+00      0.000000D+00      0.000000D+00
   yy         0.200607D+01      0.297268D+00      0.330756D+00
   zx         0.000000D+00      0.000000D+00      0.000000D+00
   zy         0.000000D+00      0.000000D+00      0.000000D+00
   zz         0.200607D+01      0.297268D+00      0.330756D+00

 ----------------------------------------------------------------------

 Dipole orientation:
     1          0.00000000          0.00000000          0.00000000
     1          0.00000006         -0.00000012          3.87393856
     9         -0.00000010          0.00000018         -5.76366468

 Electric dipole moment (dipole orientation):
 (Debye = 10**-18 statcoulomb cm , SI units = C m)
                  (au)            (Debye)         (10**-30 SI)
   Tot        0.230570D+00      0.586051D+00      0.195486D+01
   x          0.000000D+00      0.000000D+00      0.000000D+00
   y          0.000000D+00      0.000000D+00      0.000000D+00
   z          0.230570D+00      0.586051D+00      0.195486D+01

 Dipole polarizability, Alpha (dipole orientation).
 (esu units = cm**3 , SI units = C**2 m**2 J**-1)
 Alpha(0;0):
               (au)            (10**-24 esu)      (10**-40 SI)
   iso        0.201690D+02      0.298874D+01      0.332542D+01
   aniso      0.544888D+02      0.807440D+01      0.898399D+01
   xx         0.200607D+01      0.297268D+00      0.330756D+00
   yx         0.000000D+00      0.000000D+00      0.000000D+00
   yy         0.200607D+01      0.297268D+00      0.330756D+00
   zx         0.000000D+00      0.000000D+00      0.000000D+00
   zy         0.000000D+00      0.000000D+00      0.000000D+00
   zz         0.564948D+02      0.837167D+01      0.931474D+01

 ----------------------------------------------------------------------
 Unable to Open any file for archive entry.
 1\1\GINC-DESKTOP-B3RIHJD\Freq\UB3LYP\6-311G(d,p)\F1H2(2)\GARYX\22-Aug-
 2025\0\\# sp b3lyp/6-311g** Force nosymm scf=(qc)\\Title Card Required
 \\0,2\H,0.,0.,0.\H,-2.05,0.,0.\F,3.05,0.,0.\\Version=ES64L-G16RevC.01\
 HF=-100.7739955\S2=1.46308\S2-1=0.\S2A=0.751819\RMSD=3.962e-09\RMSF=8.
 679e-03\ZeroPoint=0.0023186\Thermal=0.0051143\ETot=-100.7688812\HTot=-
 100.767937\GTot=-100.7924546\Dipole=-0.2305702,0.,0.\DipoleDeriv=-0.23
 67045,0.,0.,0.,0.0193957,0.,0.,0.,0.0193957,0.0087239,0.,0.,0.,0.01227
 28,0.,0.,0.,0.0122728,0.2279806,0.,0.,0.,-0.0316685,0.,0.,0.,-0.031668
 5\Polar=56.4948447,0.,2.0060668,0.,0.,2.0060668\Quadrupole=0.1878156,-
 0.0939078,-0.0939078,0.,0.,0.\PG=C*V [C*(H1H1F1)]\NImag=2\\-0.03447001
 ,0.,0.00558488,0.,0.,0.00558488,0.03009825,0.,0.,-0.02954731,0.,-0.005
 07547,0.,0.,0.00507548,0.,0.,-0.00507547,0.,0.,0.00507548,0.00437176,0
 .,0.,-0.00055094,0.,0.,-0.00382082,0.,-0.00050941,0.,0.,0.,0.,0.,0.000
 50942,0.,0.,-0.00050941,0.,0.,0.,0.,0.,0.00050942\\0.01682418,0.,0.,-0
 .01966650,0.,0.,0.00284232,0.,0.\\\@
 The archive entry for this job was punched.


 ERWIN WITH HIS PSI CAN DO
 CALCULATIONS QUITE A FEW.
 BUT ONE THING HAS NOT BEEN SEEN
 JUST WHAT DOES PSI REALLY MEAN.
 -- WALTER HUCKEL, TRANS. BY FELIX BLOCH
 Job cpu time:       0 days  0 hours  0 minutes 28.3 seconds.
 Elapsed time:       0 days  0 hours  0 minutes  3.9 seconds.
 File lengths (MBytes):  RWF=      6 Int=      0 D2E=      0 Chk=      1 Scr=      1
 Normal termination of Gaussian 16 at Fri Aug 22 19:43:38 2025.
