 Entering Gaussian System, Link 0=g16
 Initial command:
 /home/garyx/gaussian/g16/l1.exe "/tmp/gaussian_scratch/Gau-279450.inp" -scrdir="/tmp/gaussian_scratch/"
 Entering Link 1 = /home/garyx/gaussian/g16/l1.exe PID=    279452.
  
 Copyright (c) 1988-2019, Gaussian, Inc.  All Rights Reserved.
  
 This is part of the Gaussian(R) 16 program.  It is based on
 the Gaussian(R) 09 system (copyright 2009, Gaussian, Inc.),
 the Gaussian(R) 03 system (copyright 2003, Gaussian, Inc.),
 the Gaussian(R) 98 system (copyright 1998, Gaussian, Inc.),
 the Gaussian(R) 94 system (copyright 1995, Gaussian, Inc.),
 the Gaussian 92(TM) system (copyright 1992, Gaussian, Inc.),
 the Gaussian 90(TM) system (copyright 1990, Gaussian, Inc.),
 the Gaussian 88(TM) system (copyright 1988, Gaussian, Inc.),
 the Gaussian 86(TM) system (copyright 1986, Carnegie Mellon
 University), and the Gaussian 82(TM) system (copyright 1983,
 Carnegie Mellon University). Gaussian is a federally registered
 trademark of Gaussian, Inc.
  
 This software contains proprietary and confidential information,
 including trade secrets, belonging to Gaussian, Inc.
  
 This software is provided under written license and may be
 used, copied, transmitted, or stored only in accord with that
 written license.
  
 The following legend is applicable only to US Government
 contracts under FAR:
  
                    RESTRICTED RIGHTS LEGEND
  
 Use, reproduction and disclosure by the US Government is
 subject to restrictions as set forth in subparagraphs (a)
 and (c) of the Commercial Computer Software - Restricted
 Rights clause in FAR 52.227-19.
  
 Gaussian, Inc.
 340 Quinnipiac St., Bldg. 40, Wallingford CT 06492
  
  
 ---------------------------------------------------------------
 Warning -- This program may not be used in any manner that
 competes with the business of Gaussian, Inc. or will provide
 assistance to any competitor of Gaussian, Inc.  The licensee
 of this program is prohibited from giving any competitor of
 Gaussian, Inc. access to this program.  By using this program,
 the user acknowledges that Gaussian, Inc. is engaged in the
 business of creating and licensing software in the field of
 computational chemistry and represents and warrants to the
 licensee that it is not a competitor of Gaussian, Inc. and that
 it will not use this program in any manner prohibited above.
 ---------------------------------------------------------------
  

 Cite this work as:
 Gaussian 16, Revision C.01,
 M. J. Frisch, G. W. Trucks, H. B. Schlegel, G. E. Scuseria, 
 M. A. Robb, J. R. Cheeseman, G. Scalmani, V. Barone, 
 G. A. Petersson, H. Nakatsuji, X. Li, M. Caricato, A. V. Marenich, 
 J. Bloino, B. G. Janesko, R. Gomperts, B. Mennucci, H. P. Hratchian, 
 J. V. Ortiz, A. F. Izmaylov, J. L. Sonnenberg, D. Williams-Young, 
 F. Ding, F. Lipparini, F. Egidi, J. Goings, B. Peng, A. Petrone, 
 T. Henderson, D. Ranasinghe, V. G. Zakrzewski, J. Gao, N. Rega, 
 G. Zheng, W. Liang, M. Hada, M. Ehara, K. Toyota, R. Fukuda, 
 J. Hasegawa, M. Ishida, T. Nakajima, Y. Honda, O. Kitao, H. Nakai, 
 T. Vreven, K. Throssell, J. A. Montgomery, Jr., J. E. Peralta, 
 F. Ogliaro, M. J. Bearpark, J. J. Heyd, E. N. Brothers, K. N. Kudin, 
 V. N. Staroverov, T. A. Keith, R. Kobayashi, J. Normand, 
 K. Raghavachari, A. P. Rendell, J. C. Burant, S. S. Iyengar, 
 J. Tomasi, M. Cossi, J. M. Millam, M. Klene, C. Adamo, R. Cammi, 
 J. W. Ochterski, R. L. Martin, K. Morokuma, O. Farkas, 
 J. B. Foresman, and D. J. Fox, Gaussian, Inc., Wallingford CT, 2019.
 
 ******************************************
 Gaussian 16:  ES64L-G16RevC.01  3-Jul-2019
                22-Aug-2025 
 ******************************************
 %mem=10GB
 %nprocs=8
 Will use up to    8 processors via shared memory.
 -----------------------------------------
 # sp b3lyp/6-311g** Force nosymm scf=(qc)
 -----------------------------------------
 1/10=4,30=1,38=1/1,3;
 2/12=2,15=1,17=6,18=5,40=1/2;
 3/5=4,6=6,7=101,11=2,25=1,30=1,71=2,74=-5,140=1/1,2,3;
 4//1;
 5/5=2,8=3,38=5,98=1/8;
 8/6=4,10=90,11=11/1;
 11/6=1,8=1,9=11,15=111,16=1,31=1/1,2,10;
 10/6=1,31=1/2;
 6/7=2,8=2,9=2,10=2,28=1/1;
 7/8=1,10=1,25=1,30=1/1,2,3,16;
 1/10=4,30=1/3;
 99//99;
 -------------------
 Title Card Required
 -------------------
 Symbolic Z-matrix:
 Charge =  0 Multiplicity = 2
 H                     0.        0.        0. 
 H                    -1.05      0.        0. 
 F                     1.35      0.        0. 
 

 GradGradGradGradGradGradGradGradGradGradGradGradGradGradGradGradGradGrad
 Berny optimization.
 Initialization pass.
 Trust Radius=3.00D-01 FncErr=1.00D-07 GrdErr=1.00D-07 EigMax=2.50D+02 EigMin=1.00D-04
 Number of steps in this run=      2 maximum allowed number of steps=      2.
 GradGradGradGradGradGradGradGradGradGradGradGradGradGradGradGradGradGrad

                          Input orientation:                          
 ---------------------------------------------------------------------
 Center     Atomic      Atomic             Coordinates (Angstroms)
 Number     Number       Type             X           Y           Z
 ---------------------------------------------------------------------
      1          1           0        0.000000    0.000000    0.000000
      2          1           0       -1.050000    0.000000    0.000000
      3          9           0        1.350000    0.000000    0.000000
 ---------------------------------------------------------------------
                    Distance matrix (angstroms):
                    1          2          3
     1  H    0.000000
     2  H    1.050000   0.000000
     3  F    1.350000   2.400000   0.000000
 Symmetry turned off by external request.
 Stoichiometry    FH2(2)
 Framework group  C*V[C*(HHF)]
 Deg. of freedom     2
 Full point group                 C*V     NOp   4
 Rotational constants (GHZ):           0.0000000          72.5897702          72.5897702
 Standard basis: 6-311G(d,p) (5D, 7F)
    30 basis functions,    48 primitive gaussians,    31 cartesian basis functions
     6 alpha electrons        5 beta electrons
       nuclear repulsion energy         6.0162409099 Hartrees.
 NAtoms=    3 NActive=    3 NUniq=    3 SFac= 1.00D+00 NAtFMM=   60 NAOKFM=F Big=F
 Integral buffers will be    131072 words long.
 Raffenetti 2 integral format.
 Two-electron integral symmetry is turned off.
 One-electron integrals computed using PRISM.
 NBasis=    30 RedAO= T EigKep=  3.52D-02  NBF=    30
 NBsUse=    30 1.00D-06 EigRej= -1.00D+00 NBFU=    30
 ExpMin= 1.03D-01 ExpMax= 1.14D+04 ExpMxC= 1.72D+03 IAcc=3 IRadAn=         5 AccDes= 0.00D+00
 Harris functional with IExCor=  402 and IRadAn=       5 diagonalized for initial guess.
 HarFok:  IExCor=  402 AccDes= 0.00D+00 IRadAn=         5 IDoV= 1 UseB2=F ITyADJ=14
 ICtDFT=  3500011 ScaDFX=  1.000000  1.000000  1.000000  1.000000
 FoFCou: FMM=F IPFlag=           0 FMFlag=      100000 FMFlg1=           0
         NFxFlg=           0 DoJE=T BraDBF=F KetDBF=T FulRan=T
         wScrn=  0.000000 ICntrl=       500 IOpCl=  0 I1Cent=   200000004 NGrid=           0
         NMat0=    1 NMatS0=      1 NMatT0=    0 NMatD0=    1 NMtDS0=    0 NMtDT0=    0
 Symmetry not used in FoFCou.
 Initial guess <Sx>= 0.0000 <Sy>= 0.0000 <Sz>= 0.5000 <S**2>= 0.7500 S= 0.5000
 Keep R1 and R2 ints in memory in canonical form, NReq=7127049.
 Gradient too large for Newton-Raphson -- use scaled steepest descent instead.
     Accept linear search using points  1 and  2.
 Gradient too large for Newton-Raphson -- use scaled steepest descent instead.
     Accept linear search using points  2 and  3.
 Gradient too large for Newton-Raphson -- use scaled steepest descent instead.
     Accept linear search using points  3 and  4.
 Gradient too large for Newton-Raphson -- use scaled steepest descent instead.
     Accept linear search using points  1 and  2.
 Gradient too large for Newton-Raphson -- use scaled steepest descent instead.
 LinEq1:  Iter=  0 NonCon=     1 RMS=8.29D-04 Max=1.15D-02 NDo=     1
 AX will form     1 AO Fock derivatives at one time.
 LinEq1:  Iter=  1 NonCon=     1 RMS=4.27D-04 Max=4.03D-03 NDo=     1
 LinEq1:  Iter=  2 NonCon=     1 RMS=4.25D-05 Max=3.01D-04 NDo=     1
 LinEq1:  Iter=  3 NonCon=     1 RMS=6.54D-06 Max=5.05D-05 NDo=     1
 LinEq1:  Iter=  4 NonCon=     1 RMS=1.69D-06 Max=1.46D-05 NDo=     1
 LinEq1:  Iter=  5 NonCon=     1 RMS=3.45D-07 Max=2.88D-06 NDo=     1
 LinEq1:  Iter=  6 NonCon=     1 RMS=5.55D-08 Max=3.28D-07 NDo=     1
 LinEq1:  Iter=  7 NonCon=     1 RMS=1.07D-08 Max=7.72D-08 NDo=     1
 LinEq1:  Iter=  8 NonCon=     1 RMS=2.10D-09 Max=1.39D-08 NDo=     1
 LinEq1:  Iter=  9 NonCon=     0 RMS=2.24D-10 Max=1.23D-09 NDo=     1
 Linear equations converged to 1.640D-09 1.640D-08 after     9 iterations.
     Minimum is close to point  2 DX=  2.14D-03 DF= -1.71D-10 DXR=  2.13D-03 DFR=  4.55D-06 which will be used.
 LinEq1:  Iter=  0 NonCon=     1 RMS=2.58D-06 Max=3.59D-05 NDo=     1
 LinEq1:  Iter=  1 NonCon=     1 RMS=1.32D-06 Max=7.51D-06 NDo=     1
 LinEq1:  Iter=  2 NonCon=     1 RMS=2.74D-07 Max=2.28D-06 NDo=     1
 LinEq1:  Iter=  3 NonCon=     1 RMS=8.12D-08 Max=9.05D-07 NDo=     1
 LinEq1:  Iter=  4 NonCon=     1 RMS=9.39D-09 Max=6.43D-08 NDo=     1
 LinEq1:  Iter=  5 NonCon=     1 RMS=2.22D-09 Max=2.37D-08 NDo=     1
 LinEq1:  Iter=  6 NonCon=     1 RMS=4.47D-10 Max=2.70D-09 NDo=     1
 LinEq1:  Iter=  7 NonCon=     0 RMS=1.16D-10 Max=1.02D-09 NDo=     1
 Linear equations converged to 2.045D-10 2.045D-09 after     7 iterations.
 SCF Done:  E(UB3LYP) =  -100.929868617     a.u. after    8 cycles
            Convg  =    0.2248D-08                    35 Fock formations.
              S**2 =  0.7673                  -V/T =  2.0033
 <Sx>= 0.0000 <Sy>= 0.0000 <Sz>= 0.5000 <S**2>= 0.7673 S= 0.5086
 <L.S>=  0.00000000000    
 Annihilation of the first spin contaminant:
 S**2 before annihilation     0.7673,   after     0.7500
 DoSCS=F DFT=T ScalE2(SS,OS)=  1.000000  1.000000
 Range of M.O.s used for correlation:     1    30
 NBasis=    30 NAE=     6 NBE=     5 NFC=     0 NFV=     0
 NROrb=     30 NOA=     6 NOB=     5 NVA=    24 NVB=    25
 Symmetrizing basis deriv contribution to polar:
 IMax=3 JMax=2 DiffMx= 0.00D+00
 G2DrvN: will do     4 centers at a time, making    1 passes.
 Calling FoFCou, ICntrl=  3107 FMM=F I1Cent=   0 AccDes= 0.00D+00.
 End of G2Drv F.D. properties file   721 does not exist.
 End of G2Drv F.D. properties file   722 does not exist.
 End of G2Drv F.D. properties file   788 does not exist.
          IDoAtm=111
          Differentiating once with respect to electric field.
                with respect to dipole field.
          Differentiating once with respect to nuclear coordinates.
 Keep R1 and R2 ints in memory in canonical form, NReq=7101505.
          There are    12 degrees of freedom in the 1st order CPHF.  IDoFFX=6 NUNeed=     3.
      9 vectors produced by pass  0 Test12= 2.24D-15 8.33D-09 XBig12= 6.92D+01 7.70D+00.
 AX will form     9 AO Fock derivatives at one time.
      9 vectors produced by pass  1 Test12= 2.24D-15 8.33D-09 XBig12= 1.26D+01 1.28D+00.
      9 vectors produced by pass  2 Test12= 2.24D-15 8.33D-09 XBig12= 2.17D+00 8.05D-01.
      9 vectors produced by pass  3 Test12= 2.24D-15 8.33D-09 XBig12= 2.94D-02 9.62D-02.
      9 vectors produced by pass  4 Test12= 2.24D-15 8.33D-09 XBig12= 6.36D-05 2.97D-03.
      5 vectors produced by pass  5 Test12= 2.24D-15 8.33D-09 XBig12= 2.20D-07 1.80D-04.
      5 vectors produced by pass  6 Test12= 2.24D-15 8.33D-09 XBig12= 7.05D-10 1.03D-05.
      1 vectors produced by pass  7 Test12= 2.24D-15 8.33D-09 XBig12= 8.25D-13 2.71D-07.
      1 vectors produced by pass  8 Test12= 2.24D-15 8.33D-09 XBig12= 6.51D-16 1.19D-08.
 InvSVY:  IOpt=1 It=  1 EMax= 6.66D-16
 Solved reduced A of dimension    57 with     9 vectors.
 Isotropic polarizability for W=    0.000000       10.24 Bohr**3.
 End of Minotr F.D. properties file   721 does not exist.
 End of Minotr F.D. properties file   722 does not exist.
 End of Minotr F.D. properties file   788 does not exist.

 **********************************************************************

            Population analysis using the SCF Density.

 **********************************************************************

 Alpha  occ. eigenvalues --  -24.66892  -1.14662  -0.53234  -0.39426  -0.39426
 Alpha  occ. eigenvalues --   -0.39236
 Alpha virt. eigenvalues --    0.04340   0.19574   0.34075   0.90095   0.90095
 Alpha virt. eigenvalues --    0.99289   1.08074   1.08074   1.23314   1.60288
 Alpha virt. eigenvalues --    1.60288   1.62106   2.20460   2.31250   2.45372
 Alpha virt. eigenvalues --    3.79338   3.79338   3.81413   3.81413   4.25965
 Alpha virt. eigenvalues --    6.02170   6.02170   6.13770  66.63705
  Beta  occ. eigenvalues --  -24.65057  -1.09787  -0.45531  -0.37683  -0.37683
  Beta virt. eigenvalues --   -0.22381   0.07073   0.21571   0.36918   0.91032
  Beta virt. eigenvalues --    0.91032   1.03561   1.12369   1.12369   1.27695
  Beta virt. eigenvalues --    1.62861   1.62861   1.65806   2.25900   2.34234
  Beta virt. eigenvalues --    2.49625   3.82350   3.82350   3.84800   3.84800
  Beta virt. eigenvalues --    4.32328   6.03693   6.03693   6.21428  66.65503
          Condensed to atoms (all electrons):
               1          2          3
     1  H    0.453302   0.224959   0.101384
     2  H    0.224959   0.739883  -0.015297
     3  F    0.101384  -0.015297   9.184722
          Atomic-Atomic Spin Densities.
               1          2          3
     1  H   -0.116681   0.044277  -0.025044
     2  H    0.044277   0.533866  -0.027930
     3  F   -0.025044  -0.027930   0.600210
 Mulliken charges and spin densities:
               1          2
     1  H    0.220354  -0.097448
     2  H    0.050455   0.550213
     3  F   -0.270809   0.547235
 Sum of Mulliken charges =   0.00000   1.00000
 Mulliken charges and spin densities with hydrogens summed into heavy atoms:
               1          2
     3  F    0.000000   1.000000
 APT charges:
               1
     1  H   -0.123489
     2  H    0.218525
     3  F   -0.095035
 Sum of APT charges =   0.00000
 APT charges with hydrogens summed into heavy atoms:
               1
     3  F    0.000000
 Electronic spatial extent (au):  <R**2>=             78.5037
 Charge=              0.0000 electrons
 Dipole moment (field-independent basis, Debye):
    X=             -2.1075    Y=             -0.0000    Z=             -0.0000  Tot=              2.1075
 Quadrupole moment (field-independent basis, Debye-Ang):
   XX=             -7.6039   YY=             -6.9531   ZZ=             -6.9531
   XY=             -0.0000   XZ=             -0.0000   YZ=              0.0000
 Traceless Quadrupole moment (field-independent basis, Debye-Ang):
   XX=             -0.4339   YY=              0.2170   ZZ=              0.2170
   XY=             -0.0000   XZ=             -0.0000   YZ=              0.0000
 Octapole moment (field-independent basis, Debye-Ang**2):
  XXX=            -18.9594  YYY=             -0.0000  ZZZ=             -0.0000  XYY=             -5.7284
  XXY=              0.0000  XXZ=             -0.0000  XZZ=             -5.7284  YZZ=             -0.0000
  YYZ=             -0.0000  XYZ=              0.0000
 Hexadecapole moment (field-independent basis, Debye-Ang**3):
 XXXX=            -61.7729 YYYY=             -4.7929 ZZZZ=             -4.7929 XXXY=             -0.0000
 XXXZ=             -0.0000 YYYX=             -0.0000 YYYZ=              0.0000 ZZZX=             -0.0000
 ZZZY=              0.0000 XXYY=            -11.8217 XXZZ=            -11.8217 YYZZ=             -1.5976
 XXYZ=              0.0000 YYXZ=             -0.0000 ZZXY=             -0.0000
 N-N= 6.016240909864D+00 E-N=-2.535784088860D+02  KE= 1.005945220578D+02
  Exact polarizability:      25.829      -0.000       2.446       0.000       0.000       2.446
 Approx polarizability:      37.114      -0.000       2.434       0.000       0.000       2.434
                          Isotropic Fermi Contact Couplings
        Atom                 a.u.       MegaHertz       Gauss      10(-4) cm-1
     1  H(1)              -0.03609    -161.31263     -57.56036     -53.80810
     2  H(1)               0.19264     861.06939     307.25097     287.22183
     3  F(19)             -0.01360     -57.23177     -20.42172     -19.09047
 --------------------------------------------------------
       Center         ----  Spin Dipole Couplings  ----
                      3XX-RR        3YY-RR        3ZZ-RR
 --------------------------------------------------------
     1   Atom        0.202762     -0.101381     -0.101381
     2   Atom        0.014544     -0.007272     -0.007272
     3   Atom        3.717094     -1.858547     -1.858547
 --------------------------------------------------------
                        XY            XZ            YZ
 --------------------------------------------------------
     1   Atom        0.000000      0.000000      0.000000
     2   Atom        0.000000      0.000000      0.000000
     3   Atom        0.000000      0.000000      0.000000
 --------------------------------------------------------


 ---------------------------------------------------------------------------------
              Anisotropic Spin Dipole Couplings in Principal Axis System
 ---------------------------------------------------------------------------------

       Atom             a.u.   MegaHertz   Gauss  10(-4) cm-1        Axes

              Baa    -0.1014   -54.092   -19.301   -18.043 -0.0000  1.0000  0.0000
     1 H(1)   Bbb    -0.1014   -54.092   -19.301   -18.043  0.0000  0.0000  1.0000
              Bcc     0.2028   108.184    38.603    36.086  1.0000  0.0000  0.0000
 
              Baa    -0.0073    -3.880    -1.384    -1.294 -0.0000  1.0000  0.0000
     2 H(1)   Bbb    -0.0073    -3.880    -1.384    -1.294  0.0000  0.0000  1.0000
              Bcc     0.0145     7.760     2.769     2.588  1.0000  0.0000  0.0000
 
              Baa    -1.8585  -933.410  -333.064  -311.352 -0.0000  1.0000  0.0000
     3 F(19)  Bbb    -1.8585  -933.410  -333.064  -311.352  0.0000  0.0000  1.0000
              Bcc     3.7171  1866.820   666.128   622.704  1.0000  0.0000  0.0000
 

 ---------------------------------------------------------------------------------

 Calling FoFJK, ICntrl=    100127 FMM=F ISym2X=0 I1Cent= 0 IOpClX= 1 NMat=1 NMatS=1 NMatT=0.
 Full mass-weighted force constant matrix:
 Low frequencies ----2346.9579   -0.0016   -0.0016   -0.0014  455.6109  455.6109
 Low frequencies ---  928.1662 1158.4476 1158.4476
 ******    1 imaginary frequencies (negative Signs) ****** 
 Diagonal vibrational polarizability:
        5.7146035       0.2876220       0.2876220
 Harmonic frequencies (cm**-1), IR intensities (KM/Mole), Raman scattering
 activities (A**4/AMU), depolarization ratios for plane and unpolarized
 incident light, reduced masses (AMU), force constants (mDyne/A),
 and normal coordinates:
                      1                      2                      3
                      A                      A                      A
 Frequencies --  -2346.9579               928.1662              1156.9777
 Red. masses --      1.0316                 1.0811                 1.0152
 Frc consts  --      3.3479                 0.5488                 0.8007
 IR Inten    --    676.0679                77.2002                14.3067
  Atom  AN      X      Y      Z        X      Y      Z        X      Y      Z
     1   1     0.96   0.00  -0.00     0.23   0.00   0.00     0.00   0.00   0.87
     2   1    -0.28  -0.00   0.00     0.97  -0.00  -0.00    -0.00  -0.00  -0.49
     3   9    -0.04  -0.00   0.00    -0.06  -0.00  -0.00     0.00  -0.00  -0.02
                      4
                      A
 Frequencies --   1156.9777
 Red. masses --      1.0152
 Frc consts  --      0.8007
 IR Inten    --     14.3067
  Atom  AN      X      Y      Z
     1   1    -0.00   0.87  -0.00
     2   1    -0.00  -0.49   0.00
     3   9     0.00  -0.02   0.00

 -------------------
 - Thermochemistry -
 -------------------
 Temperature   298.150 Kelvin.  Pressure   1.00000 Atm.
 Atom     1 has atomic number  1 and mass   1.00783
 Atom     2 has atomic number  1 and mass   1.00783
 Atom     3 has atomic number  9 and mass  18.99840
 Molecular mass:    21.01405 amu.
 Principal axes and moments of inertia in atomic units:
                           1         2         3
     Eigenvalues --     0.00000  24.86220  24.86220
           X            1.00000  -0.00000   0.00000
           Y            0.00000   1.00000   0.00000
           Z            0.00000   0.00000   1.00000
 This molecule is a prolate symmetric top.
 Rotational symmetry number  1.
 Rotational temperature (Kelvin)      3.48376
 Rotational constant (GHZ):          72.589770
    1 imaginary frequencies ignored.
 Zero-point vibrational energy      19392.2 (Joules/Mol)
                                    4.63485 (Kcal/Mol)
 Vibrational temperatures:   1335.42  1664.63  1664.63
          (Kelvin)
 
 Zero-point correction=                           0.007386 (Hartree/Particle)
 Thermal correction to Energy=                    0.009835
 Thermal correction to Enthalpy=                  0.010779
 Thermal correction to Gibbs Free Energy=        -0.011789
 Sum of electronic and zero-point Energies=           -100.922483
 Sum of electronic and thermal Energies=              -100.920034
 Sum of electronic and thermal Enthalpies=            -100.919090
 Sum of electronic and thermal Free Energies=         -100.941657
 
                     E (Thermal)             CV                S
                      KCal/Mol        Cal/Mol-Kelvin    Cal/Mol-Kelvin
 Total                    6.171              5.900             47.498
 Electronic               0.000              0.000              1.377
 Translational            0.889              2.981             35.068
 Rotational               0.592              1.987             10.829
 Vibrational              4.690              0.932              0.224
                       Q            Log10(Q)             Ln(Q)
 Total Bot       0.264544D+06          5.422497         12.485761
 Total V=0       0.660485D+09          8.819863         20.308484
 Vib (Bot)       0.408190D-03         -3.389138         -7.803779
 Vib (V=0)       0.101912D+01          0.008227          0.018944
 Electronic      0.200000D+01          0.301030          0.693147
 Translational   0.378633D+07          6.578219         15.146908
 Rotational      0.855828D+02          1.932387          4.449485
 -------------------------------------------------------------------
 Center     Atomic                   Forces (Hartrees/Bohr)
 Number     Number              X              Y              Z
 -------------------------------------------------------------------
      1        1           0.007588258    0.000000000    0.000000000
      2        1           0.039500566   -0.000000000   -0.000000000
      3        9          -0.047088824   -0.000000000   -0.000000000
 -------------------------------------------------------------------
 Cartesian Forces:  Max     0.047088824 RMS     0.020643088

 GradGradGradGradGradGradGradGradGradGradGradGradGradGradGradGradGradGrad
 Berny optimization.
 Search for a local minimum.
 Step number   1 out of a maximum of    2
 All quantities printed in internal units (Hartrees-Bohrs-Radians)
 Second derivative matrix not updated -- analytic derivatives used.
 The second derivative matrix:
                          X1        Y1        Z1        X2        Y2
           X1          -0.18774
           Y1          -0.00000   0.03825
           Z1           0.00000  -0.00000   0.03825
           X2           0.06123   0.00000  -0.00000   0.01327
           Y2           0.00000  -0.01984   0.00000  -0.00000   0.01987
           Z2          -0.00000   0.00000  -0.01984   0.00000  -0.00000
           X3           0.12650   0.00000  -0.00000  -0.07450  -0.00000
           Y3           0.00000  -0.01841   0.00000   0.00000  -0.00003
           Z3           0.00000   0.00000  -0.01841  -0.00000   0.00000
                          Z2        X3        Y3        Z3
           Z2           0.01987
           X3           0.00000  -0.05200
           Y3           0.00000  -0.00000   0.01844
           Z3          -0.00003  -0.00000  -0.00000   0.01844
 ITU=  0
     Eigenvalues ---   -0.26175   0.05419   0.05429   0.05429
 Eigenvalue     1 is  -2.62D-01 should be greater than     0.000000 Eigenvector:
                          X1        X3        X2        Z1        Y1
   1                    0.94931  -0.25533  -0.18333  -0.00000   0.00000
                          Z2        Y2        Z3        Y3
   1                    0.00000  -0.00000   0.00000  -0.00000
 Quadratic step=9.924D-01 exceeds max=3.000D-01 adjusted using Lamda=-1.258D-01.
 Angle between NR and scaled steps=   3.27 degrees.
 Angle between quadratic step and forces=  28.03 degrees.
 Linear search not attempted -- first point.
 B after Tr=    -0.073204    0.000000   -0.000000
         Rot=    0.871945   -0.489603   -0.000000    0.000000 Ang= -58.63 deg.
 Variable       Old X    -DE/DX   Delta X   Delta X   Delta X     New X
                                 (Linear)    (Quad)   (Total)
    X1        0.00000   0.00759   0.00000   0.05587  -0.01733  -0.01733
    Y1        0.00000   0.00000   0.00000   0.00000  -0.00000  -0.00000
    Z1        0.00000   0.00000   0.00000   0.00000   0.00000   0.00000
    X2       -1.98421   0.03950   0.00000   0.27355   0.20034  -1.78387
    Y2        0.00000  -0.00000   0.00000  -0.00000   0.00000   0.00000
    Z2        0.00000  -0.00000   0.00000  -0.00000  -0.00000  -0.00000
    X3        2.55113  -0.04709   0.00000  -0.10981  -0.18301   2.36812
    Y3        0.00000  -0.00000   0.00000  -0.00000   0.00000   0.00000
    Z3        0.00000  -0.00000   0.00000  -0.00000  -0.00000  -0.00000
         Item               Value     Threshold  Converged?
 Maximum Force            0.047089     0.000450     NO 
 RMS     Force            0.020643     0.000300     NO 
 Maximum Displacement     0.200344     0.001800     NO 
 RMS     Displacement     0.090634     0.001200     NO 
 Predicted change in Energy=-1.411233D-02
 GradGradGradGradGradGradGradGradGradGradGradGradGradGradGradGradGradGrad


 ----------------------------------------------------------------------

 Electric dipole moment (input orientation):
 (Debye = 10**-18 statcoulomb cm , SI units = C m)
                  (au)            (Debye)         (10**-30 SI)
   Tot        0.829165D+00      0.210753D+01      0.702996D+01
   x         -0.829165D+00     -0.210753D+01     -0.702996D+01
   y          0.000000D+00      0.000000D+00      0.000000D+00
   z          0.000000D+00      0.000000D+00      0.000000D+00

 Dipole polarizability, Alpha (input orientation).
 (esu units = cm**3 , SI units = C**2 m**2 J**-1)
 Alpha(0;0):
               (au)            (10**-24 esu)      (10**-40 SI)
   iso        0.102403D+02      0.151746D+01      0.168840D+01
   aniso      0.233837D+02      0.346511D+01      0.385546D+01
   xx         0.258295D+02      0.382753D+01      0.425870D+01
   yx         0.000000D+00      0.000000D+00      0.000000D+00
   yy         0.244575D+01      0.362423D+00      0.403250D+00
   zx         0.000000D+00      0.000000D+00      0.000000D+00
   zy         0.000000D+00      0.000000D+00      0.000000D+00
   zz         0.244575D+01      0.362423D+00      0.403250D+00

 ----------------------------------------------------------------------

 Dipole orientation:
     1          0.00000000          0.00000000         -0.00000000
     1          0.00000000          0.00000000          1.98421243
     9         -0.00000000         -0.00000000         -2.55113027

 Electric dipole moment (dipole orientation):
 (Debye = 10**-18 statcoulomb cm , SI units = C m)
                  (au)            (Debye)         (10**-30 SI)
   Tot        0.829165D+00      0.210753D+01      0.702996D+01
   x          0.000000D+00      0.000000D+00      0.000000D+00
   y          0.000000D+00      0.000000D+00      0.000000D+00
   z          0.829165D+00      0.210753D+01      0.702996D+01

 Dipole polarizability, Alpha (dipole orientation).
 (esu units = cm**3 , SI units = C**2 m**2 J**-1)
 Alpha(0;0):
               (au)            (10**-24 esu)      (10**-40 SI)
   iso        0.102403D+02      0.151746D+01      0.168840D+01
   aniso      0.233837D+02      0.346511D+01      0.385546D+01
   xx         0.244575D+01      0.362423D+00      0.403250D+00
   yx         0.000000D+00      0.000000D+00      0.000000D+00
   yy         0.244575D+01      0.362423D+00      0.403250D+00
   zx         0.000000D+00      0.000000D+00      0.000000D+00
   zy         0.000000D+00      0.000000D+00      0.000000D+00
   zz         0.258295D+02      0.382753D+01      0.425870D+01

 ----------------------------------------------------------------------
 Unable to Open any file for archive entry.
 1\1\GINC-DESKTOP-B3RIHJD\Freq\UB3LYP\6-311G(d,p)\F1H2(2)\GARYX\22-Aug-
 2025\0\\# sp b3lyp/6-311g** Force nosymm scf=(qc)\\Title Card Required
 \\0,2\H,0.,0.,0.\H,-1.05,0.,0.\F,1.35,0.,0.\\Version=ES64L-G16RevC.01\
 HF=-100.9298686\S2=0.767324\S2-1=0.\S2A=0.750013\RMSD=1.371e-10\RMSF=2
 .064e-02\ZeroPoint=0.0073861\Thermal=0.0098349\ETot=-100.9200337\HTot=
 -100.9190896\GTot=-100.9416575\Dipole=-0.8291652,0.,0.\DipoleDeriv=-0.
 7302958,0.,0.,0.,0.1799142,0.,0.,0.,0.1799142,0.492329,0.,0.,0.,0.0816
 224,0.,0.,0.,0.0816224,0.2379668,0.,0.,0.,-0.2615366,0.,0.,0.,-0.26153
 66\Polar=25.8294734,0.,2.445749,0.,0.,2.445749\Quadrupole=-0.3226121,0
 .161306,0.161306,0.,0.,0.\PG=C*V [C*(H1H1F1)]\NImag=1\\-0.18773573,0.,
 0.03825133,0.,0.,0.03825133,0.06123115,0.,0.,0.01327021,0.,-0.01984297
 ,0.,0.,0.01987115,0.,0.,-0.01984297,0.,0.,0.01987115,0.12650458,0.,0.,
 -0.07450136,0.,0.,-0.05200323,0.,-0.01840836,0.,0.,-0.00002818,0.,0.,0
 .01843654,0.,0.,-0.01840836,0.,0.,-0.00002818,0.,0.,0.01843654\\-0.007
 58826,0.,0.,-0.03950057,0.,0.,0.04708882,0.,0.\\\@
 The archive entry for this job was punched.


 TIME IS IN FACT THE HERO OF THE PLOT. THE TIME
 WITH WHICH WE HAVE TO DEAL IS OF THE ORDER OF TWO
 BILLION YEARS...GIVEN SO MUCH TIME, THE "IMPOSSIBLE"
 BECOMES POSSIBLE, THE POSSIBLE PROBABLE, THE PROBABLE
 VIRTUALLY CERTAIN.  ONE HAS ONLY TO WAIT, TIME
 ITSELF PERFORMS THE MIRACLES.
 "ORIGIN OF LIFE" LECTURES, GEORGE WALD, 1954
 Job cpu time:       0 days  0 hours  0 minutes 15.9 seconds.
 Elapsed time:       0 days  0 hours  0 minutes  2.2 seconds.
 File lengths (MBytes):  RWF=      6 Int=      0 D2E=      0 Chk=      1 Scr=      1
 Normal termination of Gaussian 16 at Fri Aug 22 16:16:50 2025.
