 Entering Gaussian System, Link 0=g16
 Initial command:
 /home/garyx/gaussian/g16/l1.exe "/tmp/gaussian_scratch/Gau-858053.inp" -scrdir="/tmp/gaussian_scratch/"
 Entering Link 1 = /home/garyx/gaussian/g16/l1.exe PID=    858055.
  
 Copyright (c) 1988-2019, Gaussian, Inc.  All Rights Reserved.
  
 This is part of the Gaussian(R) 16 program.  It is based on
 the Gaussian(R) 09 system (copyright 2009, Gaussian, Inc.),
 the Gaussian(R) 03 system (copyright 2003, Gaussian, Inc.),
 the Gaussian(R) 98 system (copyright 1998, Gaussian, Inc.),
 the Gaussian(R) 94 system (copyright 1995, Gaussian, Inc.),
 the Gaussian 92(TM) system (copyright 1992, Gaussian, Inc.),
 the Gaussian 90(TM) system (copyright 1990, Gaussian, Inc.),
 the Gaussian 88(TM) system (copyright 1988, Gaussian, Inc.),
 the Gaussian 86(TM) system (copyright 1986, Carnegie Mellon
 University), and the Gaussian 82(TM) system (copyright 1983,
 Carnegie Mellon University). Gaussian is a federally registered
 trademark of Gaussian, Inc.
  
 This software contains proprietary and confidential information,
 including trade secrets, belonging to Gaussian, Inc.
  
 This software is provided under written license and may be
 used, copied, transmitted, or stored only in accord with that
 written license.
  
 The following legend is applicable only to US Government
 contracts under FAR:
  
                    RESTRICTED RIGHTS LEGEND
  
 Use, reproduction and disclosure by the US Government is
 subject to restrictions as set forth in subparagraphs (a)
 and (c) of the Commercial Computer Software - Restricted
 Rights clause in FAR 52.227-19.
  
 Gaussian, Inc.
 340 Quinnipiac St., Bldg. 40, Wallingford CT 06492
  
  
 ---------------------------------------------------------------
 Warning -- This program may not be used in any manner that
 competes with the business of Gaussian, Inc. or will provide
 assistance to any competitor of Gaussian, Inc.  The licensee
 of this program is prohibited from giving any competitor of
 Gaussian, Inc. access to this program.  By using this program,
 the user acknowledges that Gaussian, Inc. is engaged in the
 business of creating and licensing software in the field of
 computational chemistry and represents and warrants to the
 licensee that it is not a competitor of Gaussian, Inc. and that
 it will not use this program in any manner prohibited above.
 ---------------------------------------------------------------
  

 Cite this work as:
 Gaussian 16, Revision C.01,
 M. J. Frisch, G. W. Trucks, H. B. Schlegel, G. E. Scuseria, 
 M. A. Robb, J. R. Cheeseman, G. Scalmani, V. Barone, 
 G. A. Petersson, H. Nakatsuji, X. Li, M. Caricato, A. V. Marenich, 
 J. Bloino, B. G. Janesko, R. Gomperts, B. Mennucci, H. P. Hratchian, 
 J. V. Ortiz, A. F. Izmaylov, J. L. Sonnenberg, D. Williams-Young, 
 F. Ding, F. Lipparini, F. Egidi, J. Goings, B. Peng, A. Petrone, 
 T. Henderson, D. Ranasinghe, V. G. Zakrzewski, J. Gao, N. Rega, 
 G. Zheng, W. Liang, M. Hada, M. Ehara, K. Toyota, R. Fukuda, 
 J. Hasegawa, M. Ishida, T. Nakajima, Y. Honda, O. Kitao, H. Nakai, 
 T. Vreven, K. Throssell, J. A. Montgomery, Jr., J. E. Peralta, 
 F. Ogliaro, M. J. Bearpark, J. J. Heyd, E. N. Brothers, K. N. Kudin, 
 V. N. Staroverov, T. A. Keith, R. Kobayashi, J. Normand, 
 K. Raghavachari, A. P. Rendell, J. C. Burant, S. S. Iyengar, 
 J. Tomasi, M. Cossi, J. M. Millam, M. Klene, C. Adamo, R. Cammi, 
 J. W. Ochterski, R. L. Martin, K. Morokuma, O. Farkas, 
 J. B. Foresman, and D. J. Fox, Gaussian, Inc., Wallingford CT, 2019.
 
 ******************************************
 Gaussian 16:  ES64L-G16RevC.01  3-Jul-2019
                22-Aug-2025 
 ******************************************
 %mem=10GB
 %nprocs=8
 Will use up to    8 processors via shared memory.
 -----------------------------------------
 # sp b3lyp/6-311g** Force nosymm scf=(qc)
 -----------------------------------------
 1/10=4,30=1,38=1/1,3;
 2/12=2,15=1,17=6,18=5,40=1/2;
 3/5=4,6=6,7=101,11=2,25=1,30=1,71=2,74=-5,140=1/1,2,3;
 4//1;
 5/5=2,8=3,38=5,98=1/8;
 8/6=4,10=90,11=11/1;
 11/6=1,8=1,9=11,15=111,16=1,31=1/1,2,10;
 10/6=1,31=1/2;
 6/7=2,8=2,9=2,10=2,28=1/1;
 7/8=1,10=1,25=1,30=1/1,2,3,16;
 1/10=4,30=1/3;
 99//99;
 -------------------
 Title Card Required
 -------------------
 Symbolic Z-matrix:
 Charge =  0 Multiplicity = 2
 H                     0.        0.        0. 
 H                    -0.65      0.        0. 
 F                     3.25      0.        0. 
 

 GradGradGradGradGradGradGradGradGradGradGradGradGradGradGradGradGradGrad
 Berny optimization.
 Initialization pass.
 Trust Radius=3.00D-01 FncErr=1.00D-07 GrdErr=1.00D-07 EigMax=2.50D+02 EigMin=1.00D-04
 Number of steps in this run=      2 maximum allowed number of steps=      2.
 GradGradGradGradGradGradGradGradGradGradGradGradGradGradGradGradGradGrad

                          Input orientation:                          
 ---------------------------------------------------------------------
 Center     Atomic      Atomic             Coordinates (Angstroms)
 Number     Number       Type             X           Y           Z
 ---------------------------------------------------------------------
      1          1           0        0.000000    0.000000    0.000000
      2          1           0       -0.650000    0.000000    0.000000
      3          9           0        3.250000    0.000000    0.000000
 ---------------------------------------------------------------------
                    Distance matrix (angstroms):
                    1          2          3
     1  H    0.000000
     2  H    0.650000   0.000000
     3  F    3.250000   3.900000   0.000000
 Symmetry turned off by external request.
 Stoichiometry    FH2(2)
 Framework group  C*V[C*(HHF)]
 Deg. of freedom     2
 Full point group                 C*V     NOp   4
 Rotational constants (GHZ):           0.0000000          21.5025874          21.5025874
 Standard basis: 6-311G(d,p) (5D, 7F)
    30 basis functions,    48 primitive gaussians,    31 cartesian basis functions
     6 alpha electrons        5 beta electrons
       nuclear repulsion energy         3.5007107799 Hartrees.
 NAtoms=    3 NActive=    3 NUniq=    3 SFac= 1.00D+00 NAtFMM=   60 NAOKFM=F Big=F
 Integral buffers will be    131072 words long.
 Raffenetti 2 integral format.
 Two-electron integral symmetry is turned off.
 One-electron integrals computed using PRISM.
 NBasis=    30 RedAO= T EigKep=  1.11D-02  NBF=    30
 NBsUse=    30 1.00D-06 EigRej= -1.00D+00 NBFU=    30
 ExpMin= 1.03D-01 ExpMax= 1.14D+04 ExpMxC= 1.72D+03 IAcc=3 IRadAn=         5 AccDes= 0.00D+00
 Harris functional with IExCor=  402 and IRadAn=       5 diagonalized for initial guess.
 HarFok:  IExCor=  402 AccDes= 0.00D+00 IRadAn=         5 IDoV= 1 UseB2=F ITyADJ=14
 ICtDFT=  3500011 ScaDFX=  1.000000  1.000000  1.000000  1.000000
 FoFCou: FMM=F IPFlag=           0 FMFlag=      100000 FMFlg1=           0
         NFxFlg=           0 DoJE=T BraDBF=F KetDBF=T FulRan=T
         wScrn=  0.000000 ICntrl=       500 IOpCl=  0 I1Cent=   200000004 NGrid=           0
         NMat0=    1 NMatS0=      1 NMatT0=    0 NMatD0=    1 NMtDS0=    0 NMtDT0=    0
 Symmetry not used in FoFCou.
 Initial guess <Sx>= 0.0000 <Sy>= 0.0000 <Sz>= 0.5000 <S**2>= 0.7500 S= 0.5000
 Keep R1 and R2 ints in memory in canonical form, NReq=7127049.
 Gradient too large for Newton-Raphson -- use scaled steepest descent instead.
     Minimum is close to point  4 DX=  8.73D-03 DF= -1.25D-06 DXR=  1.08D-02 DFR=  1.18D-04 which will be used.
 Gradient too large for Newton-Raphson -- use scaled steepest descent instead.
     Accept linear search using points  2 and  3.
 LinEq1:  Iter=  0 NonCon=     1 RMS=3.19D-04 Max=3.77D-03 NDo=     1
 AX will form     1 AO Fock derivatives at one time.
 LinEq1:  Iter=  1 NonCon=     1 RMS=1.84D-04 Max=1.75D-03 NDo=     1
 LinEq1:  Iter=  2 NonCon=     1 RMS=1.78D-05 Max=1.46D-04 NDo=     1
 LinEq1:  Iter=  3 NonCon=     1 RMS=1.22D-06 Max=1.09D-05 NDo=     1
 LinEq1:  Iter=  4 NonCon=     1 RMS=1.90D-07 Max=2.03D-06 NDo=     1
 LinEq1:  Iter=  5 NonCon=     1 RMS=1.13D-07 Max=1.37D-06 NDo=     1
 LinEq1:  Iter=  6 NonCon=     1 RMS=1.71D-08 Max=1.57D-07 NDo=     1
 LinEq1:  Iter=  7 NonCon=     1 RMS=3.93D-09 Max=3.25D-08 NDo=     1
 LinEq1:  Iter=  8 NonCon=     0 RMS=7.45D-10 Max=6.28D-09 NDo=     1
 Linear equations converged to 1.640D-09 1.640D-08 after     8 iterations.
     Minimum is close to point  2 DX=  5.34D-04 DF= -1.13D-11 DXR=  5.34D-04 DFR=  2.85D-07 which will be used.
 LinEq1:  Iter=  0 NonCon=     1 RMS=4.73D-07 Max=3.13D-06 NDo=     1
 LinEq1:  Iter=  1 NonCon=     1 RMS=2.14D-07 Max=1.80D-06 NDo=     1
 LinEq1:  Iter=  2 NonCon=     1 RMS=1.56D-07 Max=1.89D-06 NDo=     1
 LinEq1:  Iter=  3 NonCon=     1 RMS=6.45D-08 Max=4.38D-07 NDo=     1
 LinEq1:  Iter=  4 NonCon=     1 RMS=1.46D-08 Max=1.25D-07 NDo=     1
 LinEq1:  Iter=  5 NonCon=     1 RMS=1.91D-09 Max=1.54D-08 NDo=     1
 LinEq1:  Iter=  6 NonCon=     1 RMS=4.58D-10 Max=3.35D-09 NDo=     1
 LinEq1:  Iter=  7 NonCon=     0 RMS=5.57D-11 Max=6.05D-10 NDo=     1
 Linear equations converged to 2.206D-10 2.206D-09 after     7 iterations.
 Incorrect curvature in search direction -- initial direction reversed.
 LinEq1:  Iter=  0 NonCon=     1 RMS=1.50D-06 Max=1.64D-05 NDo=     1
 LinEq1:  Iter=  1 NonCon=     1 RMS=4.20D-07 Max=3.73D-06 NDo=     1
 LinEq1:  Iter=  2 NonCon=     1 RMS=2.00D-07 Max=2.02D-06 NDo=     1
 LinEq1:  Iter=  3 NonCon=     1 RMS=1.20D-07 Max=1.38D-06 NDo=     1
 LinEq1:  Iter=  4 NonCon=     1 RMS=3.78D-08 Max=2.92D-07 NDo=     1
 LinEq1:  Iter=  5 NonCon=     1 RMS=6.16D-09 Max=5.51D-08 NDo=     1
 LinEq1:  Iter=  6 NonCon=     1 RMS=1.31D-09 Max=1.15D-08 NDo=     1
 LinEq1:  Iter=  7 NonCon=     0 RMS=2.82D-10 Max=2.13D-09 NDo=     1
 Linear equations converged to 9.619D-10 9.619D-09 after     7 iterations.
 LinEq1:  Iter=  0 NonCon=     1 RMS=4.31D-06 Max=2.38D-05 NDo=     1
 LinEq1:  Iter=  1 NonCon=     1 RMS=1.19D-06 Max=8.65D-06 NDo=     1
 LinEq1:  Iter=  2 NonCon=     1 RMS=6.28D-07 Max=5.27D-06 NDo=     1
 LinEq1:  Iter=  3 NonCon=     1 RMS=2.02D-07 Max=1.49D-06 NDo=     1
 LinEq1:  Iter=  4 NonCon=     1 RMS=8.46D-08 Max=1.09D-06 NDo=     1
 LinEq1:  Iter=  5 NonCon=     1 RMS=2.90D-08 Max=2.16D-07 NDo=     1
 LinEq1:  Iter=  6 NonCon=     1 RMS=6.36D-09 Max=4.46D-08 NDo=     1
 LinEq1:  Iter=  7 NonCon=     0 RMS=6.97D-10 Max=4.61D-09 NDo=     1
 Linear equations converged to 1.640D-09 1.640D-08 after     7 iterations.
     Accept linear search using points  1 and  2.
 LinEq1:  Iter=  0 NonCon=     1 RMS=2.35D-06 Max=1.50D-05 NDo=     1
 LinEq1:  Iter=  1 NonCon=     1 RMS=5.23D-07 Max=3.97D-06 NDo=     1
 LinEq1:  Iter=  2 NonCon=     1 RMS=2.09D-07 Max=1.33D-06 NDo=     1
 LinEq1:  Iter=  3 NonCon=     1 RMS=1.24D-07 Max=1.27D-06 NDo=     1
 LinEq1:  Iter=  4 NonCon=     1 RMS=6.36D-08 Max=7.17D-07 NDo=     1
 LinEq1:  Iter=  5 NonCon=     1 RMS=1.12D-08 Max=1.01D-07 NDo=     1
 LinEq1:  Iter=  6 NonCon=     1 RMS=1.97D-09 Max=1.70D-08 NDo=     1
 LinEq1:  Iter=  7 NonCon=     0 RMS=2.99D-10 Max=1.72D-09 NDo=     1
 Linear equations converged to 1.524D-09 1.524D-08 after     7 iterations.
 LinEq1:  Iter=  0 NonCon=     1 RMS=2.09D-06 Max=1.36D-05 NDo=     1
 LinEq1:  Iter=  1 NonCon=     1 RMS=4.47D-07 Max=3.57D-06 NDo=     1
 LinEq1:  Iter=  2 NonCon=     1 RMS=1.42D-07 Max=1.02D-06 NDo=     1
 LinEq1:  Iter=  3 NonCon=     1 RMS=9.30D-08 Max=9.49D-07 NDo=     1
 LinEq1:  Iter=  4 NonCon=     1 RMS=5.74D-08 Max=5.84D-07 NDo=     1
 LinEq1:  Iter=  5 NonCon=     1 RMS=8.74D-09 Max=9.39D-08 NDo=     1
 LinEq1:  Iter=  6 NonCon=     0 RMS=5.82D-10 Max=3.33D-09 NDo=     1
 Linear equations converged to 1.124D-09 1.124D-08 after     6 iterations.
     Minimum is close to point  3 DX=  1.85D-02 DF= -3.75D-12 DXR=  8.49D-02 DFR=  7.24D-03 which will be used.
 LinEq1:  Iter=  0 NonCon=     1 RMS=1.78D-06 Max=1.03D-05 NDo=     1
 LinEq1:  Iter=  1 NonCon=     1 RMS=3.75D-07 Max=2.80D-06 NDo=     1
 LinEq1:  Iter=  2 NonCon=     1 RMS=1.09D-07 Max=1.02D-06 NDo=     1
 LinEq1:  Iter=  3 NonCon=     1 RMS=5.41D-08 Max=5.84D-07 NDo=     1
 LinEq1:  Iter=  4 NonCon=     1 RMS=4.19D-08 Max=3.13D-07 NDo=     1
 LinEq1:  Iter=  5 NonCon=     1 RMS=7.80D-09 Max=6.17D-08 NDo=     1
 LinEq1:  Iter=  6 NonCon=     1 RMS=1.73D-09 Max=1.16D-08 NDo=     1
 LinEq1:  Iter=  7 NonCon=     0 RMS=8.31D-11 Max=5.55D-10 NDo=     1
 Linear equations converged to 9.527D-10 9.527D-09 after     7 iterations.
 Incorrect curvature in search direction -- initial direction reversed.
 LinEq1:  Iter=  0 NonCon=     1 RMS=2.17D-06 Max=1.24D-05 NDo=     1
 LinEq1:  Iter=  1 NonCon=     1 RMS=4.47D-07 Max=3.39D-06 NDo=     1
 LinEq1:  Iter=  2 NonCon=     1 RMS=1.32D-07 Max=9.34D-07 NDo=     1
 LinEq1:  Iter=  3 NonCon=     1 RMS=7.54D-08 Max=7.55D-07 NDo=     1
 LinEq1:  Iter=  4 NonCon=     1 RMS=5.28D-08 Max=5.49D-07 NDo=     1
 LinEq1:  Iter=  5 NonCon=     1 RMS=1.08D-08 Max=8.04D-08 NDo=     1
 LinEq1:  Iter=  6 NonCon=     1 RMS=2.31D-09 Max=1.59D-08 NDo=     1
 LinEq1:  Iter=  7 NonCon=     0 RMS=1.81D-10 Max=1.35D-09 NDo=     1
 Linear equations converged to 1.472D-09 1.472D-08 after     7 iterations.
 Incorrect curvature in search direction -- initial direction reversed.
     Minimum is close to point  5 DX= -7.76D-04 DF= -2.94D-12 DXR=  9.27D-02 DFR=  8.58D-03 which will be used.
 LinEq1:  Iter=  0 NonCon=     1 RMS=2.25D-06 Max=1.31D-05 NDo=     1
 LinEq1:  Iter=  1 NonCon=     1 RMS=4.96D-07 Max=3.58D-06 NDo=     1
 LinEq1:  Iter=  2 NonCon=     1 RMS=2.39D-07 Max=1.80D-06 NDo=     1
 LinEq1:  Iter=  3 NonCon=     1 RMS=1.24D-07 Max=1.24D-06 NDo=     1
 LinEq1:  Iter=  4 NonCon=     1 RMS=5.86D-08 Max=6.86D-07 NDo=     1
 LinEq1:  Iter=  5 NonCon=     1 RMS=1.34D-08 Max=1.00D-07 NDo=     1
 LinEq1:  Iter=  6 NonCon=     1 RMS=2.68D-09 Max=1.81D-08 NDo=     1
 LinEq1:  Iter=  7 NonCon=     0 RMS=3.32D-10 Max=2.09D-09 NDo=     1
 Linear equations converged to 1.640D-09 1.640D-08 after     7 iterations.
 Incorrect curvature in search direction -- initial direction reversed.
 LinEq1:  Iter=  0 NonCon=     1 RMS=2.25D-06 Max=1.31D-05 NDo=     1
 LinEq1:  Iter=  1 NonCon=     1 RMS=4.93D-07 Max=3.57D-06 NDo=     1
 LinEq1:  Iter=  2 NonCon=     1 RMS=2.33D-07 Max=1.73D-06 NDo=     1
 LinEq1:  Iter=  3 NonCon=     1 RMS=1.23D-07 Max=1.23D-06 NDo=     1
 LinEq1:  Iter=  4 NonCon=     1 RMS=5.86D-08 Max=6.85D-07 NDo=     1
 LinEq1:  Iter=  5 NonCon=     1 RMS=1.32D-08 Max=9.92D-08 NDo=     1
 LinEq1:  Iter=  6 NonCon=     1 RMS=2.66D-09 Max=1.80D-08 NDo=     1
 LinEq1:  Iter=  7 NonCon=     0 RMS=3.24D-10 Max=2.06D-09 NDo=     1
 Linear equations converged to 1.640D-09 1.640D-08 after     7 iterations.
     Accept linear search using points  1 and  3.
 LinEq1:  Iter=  0 NonCon=     1 RMS=2.25D-06 Max=1.31D-05 NDo=     1
 LinEq1:  Iter=  1 NonCon=     1 RMS=4.94D-07 Max=3.57D-06 NDo=     1
 LinEq1:  Iter=  2 NonCon=     1 RMS=2.33D-07 Max=1.74D-06 NDo=     1
 LinEq1:  Iter=  3 NonCon=     1 RMS=1.23D-07 Max=1.23D-06 NDo=     1
 LinEq1:  Iter=  4 NonCon=     1 RMS=5.86D-08 Max=6.85D-07 NDo=     1
 LinEq1:  Iter=  5 NonCon=     1 RMS=1.33D-08 Max=9.93D-08 NDo=     1
 LinEq1:  Iter=  6 NonCon=     1 RMS=2.66D-09 Max=1.81D-08 NDo=     1
 LinEq1:  Iter=  7 NonCon=     0 RMS=3.25D-10 Max=2.07D-09 NDo=     1
 Linear equations converged to 1.640D-09 1.640D-08 after     7 iterations.
 Incorrect curvature in search direction -- initial direction reversed.
 Search did not lower the energy significantly.
 No lower point found -- switch to scaled steepest descent.
     Minimum is close to point  2 DX=  4.57D-02 DF= -8.41D-12 DXR=  4.37D-02 DFR=  1.91D-03 which will be used.
 LinEq1:  Iter=  0 NonCon=     1 RMS=5.07D-07 Max=3.70D-06 NDo=     1
 LinEq1:  Iter=  1 NonCon=     1 RMS=2.52D-07 Max=1.78D-06 NDo=     1
 LinEq1:  Iter=  2 NonCon=     1 RMS=1.27D-07 Max=1.16D-06 NDo=     1
 LinEq1:  Iter=  3 NonCon=     1 RMS=6.93D-08 Max=8.53D-07 NDo=     1
 LinEq1:  Iter=  4 NonCon=     1 RMS=1.73D-08 Max=1.25D-07 NDo=     1
 LinEq1:  Iter=  5 NonCon=     1 RMS=2.68D-09 Max=1.88D-08 NDo=     1
 LinEq1:  Iter=  6 NonCon=     1 RMS=4.62D-10 Max=3.59D-09 NDo=     1
 LinEq1:  Iter=  7 NonCon=     0 RMS=4.02D-11 Max=3.04D-10 NDo=     1
 Linear equations converged to 1.658D-10 1.658D-09 after     7 iterations.
 LinEq1:  Iter=  0 NonCon=     1 RMS=8.01D-07 Max=6.51D-06 NDo=     1
 LinEq1:  Iter=  1 NonCon=     1 RMS=3.11D-07 Max=2.68D-06 NDo=     1
 LinEq1:  Iter=  2 NonCon=     1 RMS=1.41D-07 Max=1.07D-06 NDo=     1
 LinEq1:  Iter=  3 NonCon=     1 RMS=5.81D-08 Max=7.45D-07 NDo=     1
 LinEq1:  Iter=  4 NonCon=     1 RMS=2.31D-08 Max=2.01D-07 NDo=     1
 LinEq1:  Iter=  5 NonCon=     1 RMS=4.86D-09 Max=4.49D-08 NDo=     1
 LinEq1:  Iter=  6 NonCon=     0 RMS=8.47D-10 Max=5.50D-09 NDo=     1
 Linear equations converged to 9.120D-10 9.120D-09 after     6 iterations.
 LinEq1:  Iter=  0 NonCon=     1 RMS=7.69D-07 Max=5.88D-06 NDo=     1
 LinEq1:  Iter=  1 NonCon=     1 RMS=3.35D-07 Max=2.94D-06 NDo=     1
 LinEq1:  Iter=  2 NonCon=     1 RMS=1.44D-07 Max=1.09D-06 NDo=     1
 LinEq1:  Iter=  3 NonCon=     1 RMS=6.00D-08 Max=8.09D-07 NDo=     1
 LinEq1:  Iter=  4 NonCon=     1 RMS=1.88D-08 Max=1.33D-07 NDo=     1
 LinEq1:  Iter=  5 NonCon=     1 RMS=3.26D-09 Max=2.61D-08 NDo=     1
 LinEq1:  Iter=  6 NonCon=     0 RMS=5.58D-10 Max=3.66D-09 NDo=     1
 Linear equations converged to 1.187D-09 1.187D-08 after     6 iterations.
 LinEq1:  Iter=  0 NonCon=     1 RMS=7.66D-07 Max=5.81D-06 NDo=     1
 LinEq1:  Iter=  1 NonCon=     1 RMS=3.40D-07 Max=2.99D-06 NDo=     1
 LinEq1:  Iter=  2 NonCon=     1 RMS=1.44D-07 Max=1.10D-06 NDo=     1
 LinEq1:  Iter=  3 NonCon=     1 RMS=5.99D-08 Max=8.11D-07 NDo=     1
 LinEq1:  Iter=  4 NonCon=     1 RMS=1.83D-08 Max=1.32D-07 NDo=     1
 LinEq1:  Iter=  5 NonCon=     1 RMS=3.06D-09 Max=2.33D-08 NDo=     1
 LinEq1:  Iter=  6 NonCon=     0 RMS=5.27D-10 Max=3.21D-09 NDo=     1
 Linear equations converged to 1.227D-09 1.227D-08 after     6 iterations.
 Search did not lower the energy significantly.
 No lower point found -- try reversing direction.
 Search did not lower the energy significantly.
 No lower point found -- switch to scaled steepest descent.
     Accept linear search using points  1 and  2.
     Minimum is close to point  2 DX= -2.40D-02 DF= -3.69D-13 DXR=  2.46D-02 DFR=  6.03D-04 which will be used.
 LinEq1:  Iter=  0 NonCon=     1 RMS=3.41D-07 Max=3.06D-06 NDo=     1
 LinEq1:  Iter=  1 NonCon=     1 RMS=1.83D-07 Max=1.70D-06 NDo=     1
 LinEq1:  Iter=  2 NonCon=     1 RMS=6.03D-08 Max=8.41D-07 NDo=     1
 LinEq1:  Iter=  3 NonCon=     1 RMS=2.23D-08 Max=2.23D-07 NDo=     1
 LinEq1:  Iter=  4 NonCon=     1 RMS=3.34D-09 Max=2.53D-08 NDo=     1
 LinEq1:  Iter=  5 NonCon=     1 RMS=5.27D-10 Max=3.22D-09 NDo=     1
 LinEq1:  Iter=  6 NonCon=     0 RMS=6.66D-11 Max=4.81D-10 NDo=     1
 Linear equations converged to 1.207D-10 1.207D-09 after     6 iterations.
 LinEq1:  Iter=  0 NonCon=     1 RMS=9.53D-07 Max=6.89D-06 NDo=     1
 LinEq1:  Iter=  1 NonCon=     1 RMS=4.45D-07 Max=4.05D-06 NDo=     1
 LinEq1:  Iter=  2 NonCon=     1 RMS=1.82D-07 Max=1.38D-06 NDo=     1
 LinEq1:  Iter=  3 NonCon=     1 RMS=6.26D-08 Max=8.02D-07 NDo=     1
 LinEq1:  Iter=  4 NonCon=     1 RMS=2.78D-08 Max=2.38D-07 NDo=     1
 LinEq1:  Iter=  5 NonCon=     1 RMS=4.84D-09 Max=3.55D-08 NDo=     1
 LinEq1:  Iter=  6 NonCon=     0 RMS=6.33D-10 Max=4.82D-09 NDo=     1
 Linear equations converged to 1.640D-09 1.640D-08 after     6 iterations.
     Accept linear search using points  1 and  2.
 LinEq1:  Iter=  0 NonCon=     1 RMS=8.57D-07 Max=5.70D-06 NDo=     1
 LinEq1:  Iter=  1 NonCon=     1 RMS=2.63D-07 Max=1.73D-06 NDo=     1
 LinEq1:  Iter=  2 NonCon=     1 RMS=1.44D-07 Max=9.15D-07 NDo=     1
 LinEq1:  Iter=  3 NonCon=     1 RMS=5.48D-08 Max=6.65D-07 NDo=     1
 LinEq1:  Iter=  4 NonCon=     1 RMS=2.28D-08 Max=2.22D-07 NDo=     1
 LinEq1:  Iter=  5 NonCon=     1 RMS=5.19D-09 Max=4.16D-08 NDo=     1
 LinEq1:  Iter=  6 NonCon=     1 RMS=9.86D-10 Max=7.27D-09 NDo=     1
 LinEq1:  Iter=  7 NonCon=     0 RMS=1.71D-10 Max=1.57D-09 NDo=     1
 Linear equations converged to 8.623D-10 8.623D-09 after     7 iterations.
 LinEq1:  Iter=  0 NonCon=     1 RMS=8.56D-07 Max=5.68D-06 NDo=     1
 LinEq1:  Iter=  1 NonCon=     1 RMS=2.64D-07 Max=1.74D-06 NDo=     1
 LinEq1:  Iter=  2 NonCon=     1 RMS=1.45D-07 Max=9.21D-07 NDo=     1
 LinEq1:  Iter=  3 NonCon=     1 RMS=5.48D-08 Max=6.65D-07 NDo=     1
 LinEq1:  Iter=  4 NonCon=     1 RMS=2.28D-08 Max=2.21D-07 NDo=     1
 LinEq1:  Iter=  5 NonCon=     1 RMS=5.24D-09 Max=4.21D-08 NDo=     1
 LinEq1:  Iter=  6 NonCon=     1 RMS=9.91D-10 Max=7.26D-09 NDo=     1
 LinEq1:  Iter=  7 NonCon=     0 RMS=1.71D-10 Max=1.59D-09 NDo=     1
 Linear equations converged to 8.760D-10 8.760D-09 after     7 iterations.
 LinEq1:  Iter=  0 NonCon=     1 RMS=8.55D-07 Max=5.67D-06 NDo=     1
 LinEq1:  Iter=  1 NonCon=     1 RMS=2.65D-07 Max=1.76D-06 NDo=     1
 LinEq1:  Iter=  2 NonCon=     1 RMS=1.46D-07 Max=9.26D-07 NDo=     1
 LinEq1:  Iter=  3 NonCon=     1 RMS=5.47D-08 Max=6.65D-07 NDo=     1
 LinEq1:  Iter=  4 NonCon=     1 RMS=2.28D-08 Max=2.21D-07 NDo=     1
 LinEq1:  Iter=  5 NonCon=     1 RMS=5.29D-09 Max=4.26D-08 NDo=     1
 LinEq1:  Iter=  6 NonCon=     1 RMS=9.95D-10 Max=7.25D-09 NDo=     1
 LinEq1:  Iter=  7 NonCon=     0 RMS=1.72D-10 Max=1.61D-09 NDo=     1
 Linear equations converged to 8.888D-10 8.888D-09 after     7 iterations.
 Incorrect curvature in search direction -- initial direction reversed.
 Search did not lower the energy significantly.
 No lower point found -- switch to scaled steepest descent.
     Minimum is close to point  2 DX=  2.03D-02 DF= -1.71D-13 DXR=  1.99D-02 DFR=  4.12D-04 which will be used.
 LinEq1:  Iter=  0 NonCon=     1 RMS=2.76D-07 Max=2.26D-06 NDo=     1
 LinEq1:  Iter=  1 NonCon=     1 RMS=1.71D-07 Max=1.38D-06 NDo=     1
 LinEq1:  Iter=  2 NonCon=     1 RMS=5.91D-08 Max=6.18D-07 NDo=     1
 LinEq1:  Iter=  3 NonCon=     1 RMS=3.24D-08 Max=3.71D-07 NDo=     1
 LinEq1:  Iter=  4 NonCon=     1 RMS=6.92D-09 Max=5.81D-08 NDo=     1
 LinEq1:  Iter=  5 NonCon=     1 RMS=1.07D-09 Max=8.63D-09 NDo=     1
 LinEq1:  Iter=  6 NonCon=     1 RMS=1.92D-10 Max=2.23D-09 NDo=     1
 LinEq1:  Iter=  7 NonCon=     0 RMS=1.29D-11 Max=9.68D-11 NDo=     1
 Linear equations converged to 8.404D-11 8.404D-10 after     7 iterations.
 LinEq1:  Iter=  0 NonCon=     1 RMS=1.12D-06 Max=9.34D-06 NDo=     1
 LinEq1:  Iter=  1 NonCon=     1 RMS=2.94D-07 Max=2.50D-06 NDo=     1
 LinEq1:  Iter=  2 NonCon=     1 RMS=9.90D-08 Max=1.01D-06 NDo=     1
 LinEq1:  Iter=  3 NonCon=     1 RMS=1.37D-08 Max=1.52D-07 NDo=     1
 LinEq1:  Iter=  4 NonCon=     1 RMS=6.65D-09 Max=7.58D-08 NDo=     1
 LinEq1:  Iter=  5 NonCon=     1 RMS=1.84D-09 Max=1.24D-08 NDo=     1
 LinEq1:  Iter=  6 NonCon=     0 RMS=2.94D-10 Max=1.97D-09 NDo=     1
 Linear equations converged to 1.640D-09 1.640D-08 after     6 iterations.
     Accept linear search using points  1 and  2.
     Minimum is close to point  2 DX= -1.42D-03 DF=  0.00D+00 DXR=  1.43D-03 DFR=  0.00D+00 which will be used.
 LinEq1:  Iter=  0 NonCon=     1 RMS=1.98D-07 Max=1.32D-06 NDo=     1
 LinEq1:  Iter=  1 NonCon=     1 RMS=5.75D-08 Max=4.92D-07 NDo=     1
 LinEq1:  Iter=  2 NonCon=     1 RMS=3.42D-08 Max=2.60D-07 NDo=     1
 LinEq1:  Iter=  3 NonCon=     1 RMS=1.21D-08 Max=1.23D-07 NDo=     1
 LinEq1:  Iter=  4 NonCon=     1 RMS=6.03D-09 Max=7.08D-08 NDo=     1
 LinEq1:  Iter=  5 NonCon=     1 RMS=1.50D-09 Max=9.37D-09 NDo=     1
 LinEq1:  Iter=  6 NonCon=     0 RMS=2.07D-10 Max=1.31D-09 NDo=     1
 Linear equations converged to 2.960D-10 2.960D-09 after     6 iterations.
 LinEq1:  Iter=  0 NonCon=     1 RMS=1.34D-07 Max=8.42D-07 NDo=     1
 LinEq1:  Iter=  1 NonCon=     1 RMS=3.91D-08 Max=2.88D-07 NDo=     1
 LinEq1:  Iter=  2 NonCon=     1 RMS=2.28D-08 Max=1.65D-07 NDo=     1
 LinEq1:  Iter=  3 NonCon=     1 RMS=9.28D-09 Max=1.22D-07 NDo=     1
 LinEq1:  Iter=  4 NonCon=     1 RMS=3.70D-09 Max=2.74D-08 NDo=     1
 LinEq1:  Iter=  5 NonCon=     1 RMS=7.02D-10 Max=6.17D-09 NDo=     1
 LinEq1:  Iter=  6 NonCon=     0 RMS=1.40D-10 Max=1.16D-09 NDo=     1
 Linear equations converged to 2.019D-10 2.019D-09 after     6 iterations.
 QCLLim is confused:  Bigger=T Turned=T
 NLin=  3 IMin12=  1  2 I12=  0  2 IX=  1 XLMin= 0.000D+00 XLMax= 0.000D+00
 X = 0.000D+00 1.000D+00 2.000D+00
 DE= 0.000D+00 5.402D-11 2.779D-10
 LinEq1:  Iter=  0 NonCon=     1 RMS=1.28D-07 Max=7.50D-07 NDo=     1
 LinEq1:  Iter=  1 NonCon=     1 RMS=4.19D-08 Max=3.34D-07 NDo=     1
 LinEq1:  Iter=  2 NonCon=     1 RMS=2.36D-08 Max=1.96D-07 NDo=     1
 LinEq1:  Iter=  3 NonCon=     1 RMS=9.06D-09 Max=1.31D-07 NDo=     1
 LinEq1:  Iter=  4 NonCon=     1 RMS=3.06D-09 Max=1.55D-08 NDo=     1
 LinEq1:  Iter=  5 NonCon=     1 RMS=2.99D-10 Max=1.86D-09 NDo=     1
 LinEq1:  Iter=  6 NonCon=     0 RMS=5.15D-11 Max=3.66D-10 NDo=     1
 Linear equations converged to 2.190D-10 2.190D-09 after     6 iterations.
 LinEq1:  Iter=  0 NonCon=     1 RMS=1.54D-07 Max=1.05D-06 NDo=     1
 LinEq1:  Iter=  1 NonCon=     1 RMS=3.13D-08 Max=2.15D-07 NDo=     1
 LinEq1:  Iter=  2 NonCon=     1 RMS=6.54D-09 Max=8.05D-08 NDo=     1
 LinEq1:  Iter=  3 NonCon=     1 RMS=3.20D-09 Max=3.00D-08 NDo=     1
 LinEq1:  Iter=  4 NonCon=     1 RMS=1.96D-09 Max=1.58D-08 NDo=     1
 LinEq1:  Iter=  5 NonCon=     1 RMS=5.55D-10 Max=5.73D-09 NDo=     1
 LinEq1:  Iter=  6 NonCon=     1 RMS=1.57D-10 Max=1.47D-09 NDo=     1
 LinEq1:  Iter=  7 NonCon=     0 RMS=1.64D-11 Max=1.26D-10 NDo=     1
 Linear equations converged to 6.128D-11 6.128D-10 after     7 iterations.
 LinEq1:  Iter=  0 NonCon=     1 RMS=1.64D-07 Max=1.27D-06 NDo=     1
 LinEq1:  Iter=  1 NonCon=     1 RMS=4.09D-08 Max=2.92D-07 NDo=     1
 LinEq1:  Iter=  2 NonCon=     1 RMS=2.31D-08 Max=1.58D-07 NDo=     1
 LinEq1:  Iter=  3 NonCon=     1 RMS=7.18D-09 Max=8.35D-08 NDo=     1
 LinEq1:  Iter=  4 NonCon=     1 RMS=3.36D-09 Max=3.36D-08 NDo=     1
 LinEq1:  Iter=  5 NonCon=     1 RMS=9.71D-10 Max=8.26D-09 NDo=     1
 LinEq1:  Iter=  6 NonCon=     0 RMS=1.34D-10 Max=7.85D-10 NDo=     1
 Linear equations converged to 2.438D-10 2.438D-09 after     6 iterations.
 QCLLim is confused:  Bigger=T Turned=T
 NLin=  3 IMin12=  1  2 I12=  0  2 IX=  1 XLMin= 0.000D+00 XLMax= 0.000D+00
 X = 0.000D+00 1.000D+00 2.000D+00
 DE= 0.000D+00 6.209D-11 3.449D-10
 LinEq1:  Iter=  0 NonCon=     1 RMS=1.44D-07 Max=1.08D-06 NDo=     1
 LinEq1:  Iter=  1 NonCon=     1 RMS=4.58D-08 Max=3.60D-07 NDo=     1
 LinEq1:  Iter=  2 NonCon=     1 RMS=2.24D-08 Max=1.66D-07 NDo=     1
 LinEq1:  Iter=  3 NonCon=     1 RMS=6.58D-09 Max=9.18D-08 NDo=     1
 LinEq1:  Iter=  4 NonCon=     1 RMS=2.50D-09 Max=1.69D-08 NDo=     1
 LinEq1:  Iter=  5 NonCon=     1 RMS=5.63D-10 Max=3.11D-09 NDo=     1
 LinEq1:  Iter=  6 NonCon=     0 RMS=7.97D-11 Max=4.87D-10 NDo=     1
 Linear equations converged to 2.788D-10 2.788D-09 after     6 iterations.
 LinEq1:  Iter=  0 NonCon=     1 RMS=1.43D-07 Max=1.09D-06 NDo=     1
 LinEq1:  Iter=  1 NonCon=     1 RMS=4.61D-08 Max=3.64D-07 NDo=     1
 LinEq1:  Iter=  2 NonCon=     1 RMS=2.23D-08 Max=1.68D-07 NDo=     1
 LinEq1:  Iter=  3 NonCon=     1 RMS=6.50D-09 Max=9.20D-08 NDo=     1
 LinEq1:  Iter=  4 NonCon=     1 RMS=2.41D-09 Max=1.64D-08 NDo=     1
 LinEq1:  Iter=  5 NonCon=     1 RMS=5.12D-10 Max=2.76D-09 NDo=     1
 LinEq1:  Iter=  6 NonCon=     0 RMS=7.08D-11 Max=4.72D-10 NDo=     1
 Linear equations converged to 2.817D-10 2.817D-09 after     6 iterations.
 Incorrect curvature in search direction -- initial direction reversed.
 Search did not lower the energy significantly.
 No lower point found -- switch to scaled steepest descent.
     Minimum is close to point  2 DX= -2.09D-02 DF= -2.84D-14 DXR=  2.13D-02 DFR=  1.17D-03 which will be used.
 LinEq1:  Iter=  0 NonCon=     1 RMS=4.87D-08 Max=4.83D-07 NDo=     1
 LinEq1:  Iter=  1 NonCon=     1 RMS=2.72D-08 Max=2.46D-07 NDo=     1
 LinEq1:  Iter=  2 NonCon=     1 RMS=6.51D-09 Max=9.09D-08 NDo=     1
 LinEq1:  Iter=  3 NonCon=     1 RMS=2.91D-09 Max=2.21D-08 NDo=     1
 LinEq1:  Iter=  4 NonCon=     1 RMS=5.30D-10 Max=3.46D-09 NDo=     1
 LinEq1:  Iter=  5 NonCon=     1 RMS=7.96D-11 Max=4.94D-10 NDo=     1
 LinEq1:  Iter=  6 NonCon=     0 RMS=1.29D-11 Max=1.06D-10 NDo=     1
 Linear equations converged to 2.115D-11 2.115D-10 after     6 iterations.
 LinEq1:  Iter=  0 NonCon=     1 RMS=5.82D-08 Max=5.11D-07 NDo=     1
 LinEq1:  Iter=  1 NonCon=     1 RMS=4.26D-08 Max=4.17D-07 NDo=     1
 LinEq1:  Iter=  2 NonCon=     1 RMS=9.53D-09 Max=9.66D-08 NDo=     1
 LinEq1:  Iter=  3 NonCon=     1 RMS=4.21D-09 Max=5.23D-08 NDo=     1
 LinEq1:  Iter=  4 NonCon=     1 RMS=5.76D-10 Max=4.58D-09 NDo=     1
 LinEq1:  Iter=  5 NonCon=     1 RMS=1.68D-10 Max=1.25D-09 NDo=     1
 LinEq1:  Iter=  6 NonCon=     0 RMS=1.39D-11 Max=1.53D-10 NDo=     1
 Linear equations converged to 9.878D-11 9.878D-10 after     6 iterations.
 QCLLim is confused:  Bigger=T Turned=T
 NLin=  3 IMin12=  1  2 I12=  0  2 IX=  1 XLMin= 0.000D+00 XLMax= 0.000D+00
 X = 0.000D+00 1.000D+00 2.000D+00
 DE= 0.000D+00 4.204D-11 2.561D-10
 LinEq1:  Iter=  0 NonCon=     1 RMS=1.10D-07 Max=9.82D-07 NDo=     1
 LinEq1:  Iter=  1 NonCon=     1 RMS=4.74D-08 Max=4.61D-07 NDo=     1
 LinEq1:  Iter=  2 NonCon=     1 RMS=1.68D-08 Max=1.15D-07 NDo=     1
 LinEq1:  Iter=  3 NonCon=     1 RMS=6.55D-09 Max=8.35D-08 NDo=     1
 LinEq1:  Iter=  4 NonCon=     1 RMS=2.83D-09 Max=2.45D-08 NDo=     1
 LinEq1:  Iter=  5 NonCon=     1 RMS=4.53D-10 Max=3.10D-09 NDo=     1
 LinEq1:  Iter=  6 NonCon=     0 RMS=7.52D-11 Max=4.30D-10 NDo=     1
 Linear equations converged to 1.142D-10 1.142D-09 after     6 iterations.
 QCLLim is confused:  Bigger=T Turned=T
 NLin=  3 IMin12=  1  2 I12=  0  2 IX=  1 XLMin= 0.000D+00 XLMax= 0.000D+00
 X = 0.000D+00 1.000D+00 2.000D+00
 DE= 0.000D+00 3.652D-12 3.348D-11
 LinEq1:  Iter=  0 NonCon=     1 RMS=8.33D-08 Max=5.93D-07 NDo=     1
 LinEq1:  Iter=  1 NonCon=     1 RMS=4.18D-08 Max=3.23D-07 NDo=     1
 LinEq1:  Iter=  2 NonCon=     1 RMS=1.63D-08 Max=1.27D-07 NDo=     1
 LinEq1:  Iter=  3 NonCon=     1 RMS=5.52D-09 Max=7.02D-08 NDo=     1
 LinEq1:  Iter=  4 NonCon=     1 RMS=2.50D-09 Max=2.12D-08 NDo=     1
 LinEq1:  Iter=  5 NonCon=     1 RMS=6.18D-10 Max=4.90D-09 NDo=     1
 LinEq1:  Iter=  6 NonCon=     0 RMS=8.40D-11 Max=6.73D-10 NDo=     1
 Linear equations converged to 1.446D-10 1.446D-09 after     6 iterations.
 QCLLim is confused:  Bigger=T Turned=T
 NLin=  3 IMin12=  1  2 I12=  0  2 IX=  1 XLMin= 0.000D+00 XLMax= 0.000D+00
 X = 0.000D+00 1.000D+00 2.000D+00
 DE= 0.000D+00 2.274D-13 1.995D-11
 LinEq1:  Iter=  0 NonCon=     1 RMS=7.62D-08 Max=4.57D-07 NDo=     1
 LinEq1:  Iter=  1 NonCon=     1 RMS=3.16D-08 Max=2.56D-07 NDo=     1
 LinEq1:  Iter=  2 NonCon=     1 RMS=1.44D-08 Max=9.61D-08 NDo=     1
 LinEq1:  Iter=  3 NonCon=     1 RMS=4.99D-09 Max=7.15D-08 NDo=     1
 LinEq1:  Iter=  4 NonCon=     1 RMS=1.61D-09 Max=9.75D-09 NDo=     1
 LinEq1:  Iter=  5 NonCon=     1 RMS=2.82D-10 Max=2.25D-09 NDo=     1
 LinEq1:  Iter=  6 NonCon=     0 RMS=3.65D-11 Max=4.10D-10 NDo=     1
 Linear equations converged to 1.324D-10 1.324D-09 after     6 iterations.
 QCLLim is confused:  Bigger=T Turned=T
 NLin=  3 IMin12=  1  2 I12=  0  2 IX=  1 XLMin= 0.000D+00 XLMax= 0.000D+00
 X = 0.000D+00 1.000D+00 2.000D+00
 DE= 0.000D+00 1.685D-11 8.414D-11
 LinEq1:  Iter=  0 NonCon=     1 RMS=7.33D-08 Max=4.25D-07 NDo=     1
 LinEq1:  Iter=  1 NonCon=     1 RMS=3.10D-08 Max=2.43D-07 NDo=     1
 LinEq1:  Iter=  2 NonCon=     1 RMS=1.43D-08 Max=1.03D-07 NDo=     1
 LinEq1:  Iter=  3 NonCon=     1 RMS=4.80D-09 Max=6.94D-08 NDo=     1
 LinEq1:  Iter=  4 NonCon=     1 RMS=1.59D-09 Max=9.64D-09 NDo=     1
 LinEq1:  Iter=  5 NonCon=     1 RMS=2.79D-10 Max=2.85D-09 NDo=     1
 LinEq1:  Iter=  6 NonCon=     0 RMS=5.38D-11 Max=5.02D-10 NDo=     1
 Linear equations converged to 1.396D-10 1.396D-09 after     6 iterations.
 QCLLim is confused:  Bigger=T Turned=T
 NLin=  3 IMin12=  1  2 I12=  0  2 IX=  1 XLMin= 0.000D+00 XLMax= 0.000D+00
 X = 0.000D+00 1.000D+00 2.000D+00
 DE= 0.000D+00 5.116D-13 4.354D-11
 LinEq1:  Iter=  0 NonCon=     1 RMS=1.03D-07 Max=8.36D-07 NDo=     1
 LinEq1:  Iter=  1 NonCon=     1 RMS=2.87D-08 Max=2.51D-07 NDo=     1
 LinEq1:  Iter=  2 NonCon=     1 RMS=9.86D-09 Max=6.33D-08 NDo=     1
 LinEq1:  Iter=  3 NonCon=     1 RMS=5.59D-09 Max=6.45D-08 NDo=     1
 LinEq1:  Iter=  4 NonCon=     1 RMS=2.56D-09 Max=2.55D-08 NDo=     1
 LinEq1:  Iter=  5 NonCon=     1 RMS=7.52D-10 Max=5.08D-09 NDo=     1
 LinEq1:  Iter=  6 NonCon=     1 RMS=1.36D-10 Max=1.09D-09 NDo=     1
 LinEq1:  Iter=  7 NonCon=     0 RMS=2.37D-11 Max=2.26D-10 NDo=     1
 Linear equations converged to 4.373D-11 4.373D-10 after     7 iterations.
 QCLLim is confused:  Bigger=T Turned=T
 NLin=  3 IMin12=  1  2 I12=  0  2 IX=  1 XLMin= 0.000D+00 XLMax= 0.000D+00
 X = 0.000D+00 1.000D+00 2.000D+00
 DE= 0.000D+00 2.113D-11 1.087D-10
 LinEq1:  Iter=  0 NonCon=     1 RMS=9.35D-08 Max=6.16D-07 NDo=     1
 LinEq1:  Iter=  1 NonCon=     1 RMS=2.86D-08 Max=2.12D-07 NDo=     1
 LinEq1:  Iter=  2 NonCon=     1 RMS=1.33D-08 Max=9.70D-08 NDo=     1
 LinEq1:  Iter=  3 NonCon=     1 RMS=5.52D-09 Max=6.90D-08 NDo=     1
 LinEq1:  Iter=  4 NonCon=     1 RMS=2.76D-09 Max=2.45D-08 NDo=     1
 LinEq1:  Iter=  5 NonCon=     1 RMS=9.13D-10 Max=5.59D-09 NDo=     1
 LinEq1:  Iter=  6 NonCon=     1 RMS=1.81D-10 Max=1.07D-09 NDo=     1
 LinEq1:  Iter=  7 NonCon=     0 RMS=2.13D-11 Max=1.34D-10 NDo=     1
 Linear equations converged to 8.619D-11 8.619D-10 after     7 iterations.
 Incorrect curvature in search direction -- initial direction reversed.
 LinEq1:  Iter=  0 NonCon=     1 RMS=1.12D-07 Max=8.58D-07 NDo=     1
 LinEq1:  Iter=  1 NonCon=     1 RMS=3.34D-08 Max=2.30D-07 NDo=     1
 LinEq1:  Iter=  2 NonCon=     1 RMS=1.53D-08 Max=1.27D-07 NDo=     1
 LinEq1:  Iter=  3 NonCon=     1 RMS=5.58D-09 Max=6.70D-08 NDo=     1
 LinEq1:  Iter=  4 NonCon=     1 RMS=3.18D-09 Max=3.08D-08 NDo=     1
 LinEq1:  Iter=  5 NonCon=     1 RMS=9.91D-10 Max=5.79D-09 NDo=     1
 LinEq1:  Iter=  6 NonCon=     1 RMS=2.12D-10 Max=9.92D-10 NDo=     1
 LinEq1:  Iter=  7 NonCon=     0 RMS=1.72D-11 Max=1.47D-10 NDo=     1
 Linear equations converged to 1.004D-10 1.004D-09 after     7 iterations.
 QCLLim is confused:  Bigger=T Turned=T
 NLin=  3 IMin12=  1  2 I12=  0  2 IX=  1 XLMin= 0.000D+00 XLMax= 0.000D+00
 X = 0.000D+00 1.000D+00 2.000D+00
 DE= 0.000D+00 1.384D-11 7.921D-11
 LinEq1:  Iter=  0 NonCon=     1 RMS=9.23D-08 Max=6.39D-07 NDo=     1
 LinEq1:  Iter=  1 NonCon=     1 RMS=3.14D-08 Max=2.68D-07 NDo=     1
 LinEq1:  Iter=  2 NonCon=     1 RMS=1.60D-08 Max=1.38D-07 NDo=     1
 LinEq1:  Iter=  3 NonCon=     1 RMS=5.51D-09 Max=6.58D-08 NDo=     1
 LinEq1:  Iter=  4 NonCon=     1 RMS=2.93D-09 Max=2.36D-08 NDo=     1
 LinEq1:  Iter=  5 NonCon=     1 RMS=7.03D-10 Max=4.01D-09 NDo=     1
 LinEq1:  Iter=  6 NonCon=     1 RMS=1.83D-10 Max=1.02D-09 NDo=     1
 LinEq1:  Iter=  7 NonCon=     0 RMS=1.50D-11 Max=1.80D-10 NDo=     1
 Linear equations converged to 1.409D-10 1.409D-09 after     7 iterations.
 LinEq1:  Iter=  0 NonCon=     1 RMS=1.69D-08 Max=2.02D-07 NDo=     1
 LinEq1:  Iter=  1 NonCon=     1 RMS=5.81D-09 Max=7.32D-08 NDo=     1
 LinEq1:  Iter=  2 NonCon=     1 RMS=4.19D-09 Max=3.40D-08 NDo=     1
 LinEq1:  Iter=  3 NonCon=     1 RMS=1.26D-09 Max=8.15D-09 NDo=     1
 LinEq1:  Iter=  4 NonCon=     1 RMS=2.70D-10 Max=1.92D-09 NDo=     1
 LinEq1:  Iter=  5 NonCon=     1 RMS=6.15D-11 Max=4.56D-10 NDo=     1
 LinEq1:  Iter=  6 NonCon=     1 RMS=1.76D-11 Max=1.80D-10 NDo=     1
 LinEq1:  Iter=  7 NonCon=     0 RMS=8.65D-12 Max=8.74D-11 NDo=     1
 Linear equations converged to 1.607D-11 1.607D-10 after     7 iterations.
 SCF Done:  E(UB3LYP) =  -100.926969980     a.u. after   43 cycles
            Convg  =    0.1014D-06                   447 Fock formations.
              S**2 =  0.7510                  -V/T =  2.0007
 <Sx>= 0.0000 <Sy>= 0.0000 <Sz>= 0.5000 <S**2>= 0.7510 S= 0.5005
 <L.S>=  0.00000000000    
 Annihilation of the first spin contaminant:
 S**2 before annihilation     0.7510,   after     0.7500
 DoSCS=F DFT=T ScalE2(SS,OS)=  1.000000  1.000000
 Range of M.O.s used for correlation:     1    30
 NBasis=    30 NAE=     6 NBE=     5 NFC=     0 NFV=     0
 NROrb=     30 NOA=     6 NOB=     5 NVA=    24 NVB=    25
 Symmetrizing basis deriv contribution to polar:
 IMax=3 JMax=2 DiffMx= 0.00D+00
 G2DrvN: will do     4 centers at a time, making    1 passes.
 Calling FoFCou, ICntrl=  3107 FMM=F I1Cent=   0 AccDes= 0.00D+00.
 End of G2Drv F.D. properties file   721 does not exist.
 End of G2Drv F.D. properties file   722 does not exist.
 End of G2Drv F.D. properties file   788 does not exist.
          IDoAtm=111
          Differentiating once with respect to electric field.
                with respect to dipole field.
          Differentiating once with respect to nuclear coordinates.
 Keep R1 and R2 ints in memory in canonical form, NReq=7101505.
          There are    12 degrees of freedom in the 1st order CPHF.  IDoFFX=6 NUNeed=     3.
      9 vectors produced by pass  0 Test12= 2.24D-15 8.33D-09 XBig12= 6.59D+00 1.71D+00.
 AX will form     9 AO Fock derivatives at one time.
      9 vectors produced by pass  1 Test12= 2.24D-15 8.33D-09 XBig12= 1.14D-01 2.05D-01.
      9 vectors produced by pass  2 Test12= 2.24D-15 8.33D-09 XBig12= 8.82D-04 1.82D-02.
      9 vectors produced by pass  3 Test12= 2.24D-15 8.33D-09 XBig12= 2.87D-06 1.04D-03.
      6 vectors produced by pass  4 Test12= 2.24D-15 8.33D-09 XBig12= 1.67D-09 2.50D-05.
      4 vectors produced by pass  5 Test12= 2.24D-15 8.33D-09 XBig12= 4.30D-12 7.40D-07.
      4 vectors produced by pass  6 Test12= 2.24D-15 8.33D-09 XBig12= 3.91D-13 5.16D-07.
      1 vectors produced by pass  7 Test12= 2.24D-15 8.33D-09 XBig12= 3.60D-15 2.45D-08.
 InvSVY:  IOpt=1 It=  1 EMax= 2.57D-15
 Solved reduced A of dimension    51 with     9 vectors.
 Isotropic polarizability for W=    0.000000        3.83 Bohr**3.
 End of Minotr F.D. properties file   721 does not exist.
 End of Minotr F.D. properties file   722 does not exist.
 End of Minotr F.D. properties file   788 does not exist.

 **********************************************************************

            Population analysis using the SCF Density.

 **********************************************************************

 Alpha  occ. eigenvalues --  -24.76466  -1.22293  -0.55490  -0.46745  -0.46641
 Alpha  occ. eigenvalues --   -0.45239
 Alpha virt. eigenvalues --    0.07750   0.19245   0.50027   0.85949   0.90823
 Alpha virt. eigenvalues --    0.93688   1.03897   1.09564   1.09569   1.59708
 Alpha virt. eigenvalues --    1.85823   1.89367   1.89373   2.37833   3.64748
 Alpha virt. eigenvalues --    3.66936   3.66961   3.73977   3.74050   3.92186
 Alpha virt. eigenvalues --    5.85438   5.93380   5.95774  66.46816
  Beta  occ. eigenvalues --  -24.73306  -1.13209  -0.45345  -0.43473  -0.43468
  Beta virt. eigenvalues --   -0.26119   0.07785   0.19266   0.50121   0.92323
  Beta virt. eigenvalues --    0.95377   0.95410   1.07704   1.09564   1.09569
  Beta virt. eigenvalues --    1.59721   1.85861   1.89366   1.89372   2.37836
  Beta virt. eigenvalues --    3.75616   3.75686   3.76768   3.76782   3.78840
  Beta virt. eigenvalues --    3.92192   5.96055   5.98451   5.99619  66.49963
          Condensed to atoms (all electrons):
               1          2          3
     1  H    0.575425   0.422424   0.006859
     2  H    0.422424   0.581508  -0.001717
     3  F    0.006859  -0.001717   8.987935
          Atomic-Atomic Spin Densities.
               1          2          3
     1  H   -0.001491   0.001323  -0.000787
     2  H    0.001323  -0.001421   0.000193
     3  F   -0.000787   0.000193   1.001455
 Mulliken charges and spin densities:
               1          2
     1  H   -0.004709  -0.000955
     2  H   -0.002215   0.000094
     3  F    0.006923   1.000861
 Sum of Mulliken charges =   0.00000   1.00000
 Mulliken charges and spin densities with hydrogens summed into heavy atoms:
               1          2
     3  F    0.000000   1.000000
 APT charges:
               1
     1  H    0.002668
     2  H    0.000233
     3  F   -0.002900
 Sum of APT charges =   0.00000
 APT charges with hydrogens summed into heavy atoms:
               1
     3  F    0.000000
 Electronic spatial extent (au):  <R**2>=            355.0015
 Charge=              0.0000 electrons
 Dipole moment (field-independent basis, Debye):
    X=              0.0697    Y=              0.0000    Z=             -0.0000  Tot=              0.0697
 Quadrupole moment (field-independent basis, Debye-Ang):
   XX=             -6.0873   YY=             -6.3819   ZZ=             -6.3860
   XY=              0.0000   XZ=             -0.0000   YZ=             -0.4319
 Traceless Quadrupole moment (field-independent basis, Debye-Ang):
   XX=              0.1978   YY=             -0.0968   ZZ=             -0.1009
   XY=              0.0000   XZ=             -0.0000   YZ=             -0.4319
 Octapole moment (field-independent basis, Debye-Ang**2):
  XXX=            -44.4497  YYY=             -0.0000  ZZZ=              0.0000  XYY=            -13.6546
  XXY=              0.0000  XXZ=             -0.0000  XZZ=            -13.6678  YZZ=             -0.0000
  YYZ=              0.0000  XYZ=             -1.4037
 Hexadecapole moment (field-independent basis, Debye-Ang**3):
 XXXX=           -308.0484 YYYY=             -4.3115 ZZZZ=             -4.3151 XXXY=              0.0001
 XXXZ=             -0.0001 YYYX=              0.0000 YYYZ=             -0.1929 ZZZX=             -0.0000
 ZZZY=             -0.1929 XXYY=            -48.2603 XXZZ=            -48.3039 YYZZ=             -1.4378
 XXYZ=             -4.6263 YYXZ=             -0.0000 ZZXY=              0.0000
 N-N= 3.500710779932D+00 E-N=-2.481378666431D+02  KE= 1.008532589576D+02
  Exact polarizability:       7.231       0.000       2.134      -0.000      -0.231       2.132
 Approx polarizability:       7.949       0.000       2.274      -0.000      -0.290       2.271
                          Isotropic Fermi Contact Couplings
        Atom                 a.u.       MegaHertz       Gauss      10(-4) cm-1
     1  H(1)               0.00000       0.00849       0.00303       0.00283
     2  H(1)              -0.00003      -0.12691      -0.04529      -0.04233
     3  F(19)              0.03133     131.80193      47.03020      43.96439
 --------------------------------------------------------
       Center         ----  Spin Dipole Couplings  ----
                      3XX-RR        3YY-RR        3ZZ-RR
 --------------------------------------------------------
     1   Atom        0.008174     -0.004086     -0.004087
     2   Atom        0.004815     -0.002407     -0.002408
     3   Atom       -3.144347      1.594442      1.549905
 --------------------------------------------------------
                        XY            XZ            YZ
 --------------------------------------------------------
     1   Atom       -0.000000      0.000000     -0.000104
     2   Atom       -0.000000      0.000000     -0.000042
     3   Atom        0.000027     -0.000027     -4.725438
 --------------------------------------------------------


 ---------------------------------------------------------------------------------
              Anisotropic Spin Dipole Couplings in Principal Axis System
 ---------------------------------------------------------------------------------

       Atom             a.u.   MegaHertz   Gauss  10(-4) cm-1        Axes

              Baa    -0.0042    -2.236    -0.798    -0.746  0.0000  0.7054  0.7088
     1 H(1)   Bbb    -0.0040    -2.125    -0.758    -0.709  0.0000  0.7088 -0.7054
              Bcc     0.0082     4.361     1.556     1.455  1.0000 -0.0000  0.0000
 
              Baa    -0.0024    -1.307    -0.466    -0.436  0.0000  0.7054  0.7088
     2 H(1)   Bbb    -0.0024    -1.262    -0.450    -0.421  0.0000  0.7088 -0.7054
              Bcc     0.0048     2.569     0.917     0.857  1.0000 -0.0000  0.0000
 
              Baa    -3.1533 -1583.676  -565.095  -528.258  0.0000  0.7054  0.7088
     3 F(19)  Bbb    -3.1443 -1579.172  -563.488  -526.755  1.0000 -0.0000  0.0000
              Bcc     6.2977  3162.848  1128.583  1055.013  0.0000  0.7088 -0.7054
 

 ---------------------------------------------------------------------------------

 Calling FoFJK, ICntrl=    100127 FMM=F ISym2X=0 I1Cent= 0 IOpClX= 1 NMat=1 NMatS=1 NMatT=0.
 Full mass-weighted force constant matrix:
 Low frequencies ----1958.2060-1958.0398    0.0007    0.0008    0.0008   37.1492
 Low frequencies ---   40.1348   46.8301 5975.9749
 ******    2 imaginary frequencies (negative Signs) ****** 
 Diagonal vibrational polarizability:
        2.0250653       0.0000767       0.0000768
 Harmonic frequencies (cm**-1), IR intensities (KM/Mole), Raman scattering
 activities (A**4/AMU), depolarization ratios for plane and unpolarized
 incident light, reduced masses (AMU), force constants (mDyne/A),
 and normal coordinates:
                      1                      2                      3
                      A                      A                      A
 Frequencies --  -1949.0872             -1948.8984                46.8301
 Red. masses --      1.0087                 1.0087                 1.1085
 Frc consts  --      2.2576                 2.2572                 0.0014
 IR Inten    --      0.0109                 0.0107                 0.1650
  Atom  AN      X      Y      Z        X      Y      Z        X      Y      Z
     1   1     0.00   0.54   0.54     0.00   0.54  -0.54     0.71  -0.00   0.00
     2   1    -0.00  -0.45  -0.45     0.00  -0.45   0.45     0.71   0.00  -0.00
     3   9    -0.00  -0.00  -0.00    -0.00  -0.00   0.00    -0.07   0.00  -0.00
                      4
                      A
 Frequencies --   5975.9749
 Red. masses --      1.0078
 Frc consts  --     21.2057
 IR Inten    --      0.1226
  Atom  AN      X      Y      Z
     1   1    -0.71  -0.00   0.00
     2   1     0.71   0.00  -0.00
     3   9    -0.00   0.00  -0.00

 -------------------
 - Thermochemistry -
 -------------------
 Temperature   298.150 Kelvin.  Pressure   1.00000 Atm.
 Atom     1 has atomic number  1 and mass   1.00783
 Atom     2 has atomic number  1 and mass   1.00783
 Atom     3 has atomic number  9 and mass  18.99840
 Molecular mass:    21.01405 amu.
 Principal axes and moments of inertia in atomic units:
                           1         2         3
     Eigenvalues --     0.00000  83.93135  83.93135
           X            1.00000  -0.00000   0.00000
           Y            0.00000   1.00000   0.00000
           Z            0.00000   0.00000   1.00000
 This molecule is a prolate symmetric top.
 Rotational symmetry number  1.
 Rotational temperature (Kelvin)      1.03196
 Rotational constant (GHZ):          21.502587
    2 imaginary frequencies ignored.
 Zero-point vibrational energy      36024.4 (Joules/Mol)
                                    8.61003 (Kcal/Mol)
 Warning -- explicit consideration of   1 degrees of freedom as
           vibrations may cause significant error
 Vibrational temperatures:     67.38  8598.10
          (Kelvin)
 
 Zero-point correction=                           0.013721 (Hartree/Particle)
 Thermal correction to Energy=                    0.016923
 Thermal correction to Enthalpy=                  0.017867
 Thermal correction to Gibbs Free Energy=        -0.008094
 Sum of electronic and zero-point Energies=           -100.913249
 Sum of electronic and thermal Energies=              -100.910047
 Sum of electronic and thermal Enthalpies=            -100.909103
 Sum of electronic and thermal Free Energies=         -100.935064
 
                     E (Thermal)             CV                S
                      KCal/Mol        Cal/Mol-Kelvin    Cal/Mol-Kelvin
 Total                   10.619              6.947             54.639
 Electronic               0.000              0.000              1.377
 Translational            0.889              2.981             35.068
 Rotational               0.592              1.987             13.247
 Vibrational              9.138              1.979              4.947
 Vibration     1          0.595              1.979              4.947
                       Q            Log10(Q)             Ln(Q)
 Total Bot       0.528308D+04          3.722887          8.572264
 Total V=0       0.108164D+11         10.034085         23.104334
 Vib (Bot)       0.241472D-05         -5.617133        -12.933927
 Vib (Bot)    1  0.441562D+01          0.644992          1.485149
 Vib (V=0)       0.494384D+01          0.694065          1.598143
 Vib (V=0)    1  0.494384D+01          0.694065          1.598143
 Electronic      0.200000D+01          0.301030          0.693147
 Translational   0.378633D+07          6.578219         15.146908
 Rotational      0.288916D+03          2.460771          5.666135
 -------------------------------------------------------------------
 Center     Atomic                   Forces (Hartrees/Bohr)
 Number     Number              X              Y              Z
 -------------------------------------------------------------------
      1        1           0.091192756    0.000000001   -0.000000001
      2        1          -0.090736896   -0.000000001    0.000000001
      3        9          -0.000455860   -0.000000001    0.000000001
 -------------------------------------------------------------------
 Cartesian Forces:  Max     0.091192756 RMS     0.042881634

 GradGradGradGradGradGradGradGradGradGradGradGradGradGradGradGradGradGrad
 Berny optimization.
 Search for a local minimum.
 Step number   1 out of a maximum of    2
 All quantities printed in internal units (Hartrees-Bohrs-Radians)
 Second derivative matrix not updated -- analytic derivatives used.
 The second derivative matrix:
                          X1        Y1        Z1        X2        Y2
           X1           0.68105
           Y1           0.00000  -0.07292
           Z1          -0.00000  -0.00002  -0.07292
           X2          -0.68099  -0.00000   0.00000   0.68107
           Y2          -0.00000   0.07314   0.00000   0.00000  -0.07327
           Z2           0.00000   0.00000   0.07314  -0.00000   0.00000
           X3          -0.00007   0.00000  -0.00000  -0.00009  -0.00000
           Y3           0.00000  -0.00023   0.00001   0.00000   0.00012
           Z3           0.00000   0.00001  -0.00023  -0.00000  -0.00000
                          Z2        X3        Y3        Z3
           Z2          -0.07327
           X3           0.00000   0.00015
           Y3          -0.00000  -0.00000   0.00010
           Z3           0.00012   0.00000  -0.00001   0.00010
 ITU=  0
     Eigenvalues ---   -0.14474  -0.14471   0.00017   1.36205
 Eigenvalue     1 is  -1.45D-01 should be greater than     0.000000 Eigenvector:
                          Z1        Y1        Z2        Y2        Z3
   1                    0.54355   0.54189  -0.45296  -0.45158  -0.03020
                          Y3        X1        X2        X3
   1                   -0.03011   0.00000  -0.00000  -0.00000
 Eigenvalue     2 is  -1.45D-01 should be greater than     0.000000 Eigenvector:
                          Y1        Z1        Y2        Z2        Y3
   1                    0.54355  -0.54189  -0.45296   0.45158  -0.03020
                          Z3        X2        X1        X3
   1                    0.03011   0.00000   0.00000  -0.00000
 Quadratic step=2.838D+00 exceeds max=3.000D-01 adjusted using Lamda=-1.539D-03.
 Angle between NR and scaled steps=  16.42 degrees.
 Angle between quadratic step and forces=  71.46 degrees.
 Linear search not attempted -- first point.
 B after Tr=    -0.080961   -0.000000   -0.000000
         Rot=    0.721498   -0.692417    0.000000    0.000000 Ang= -87.64 deg.
 Variable       Old X    -DE/DX   Delta X   Delta X   Delta X     New X
                                 (Linear)    (Quad)   (Total)
    X1        0.00000   0.09119   0.00000   0.24887   0.16791   0.16791
    Y1        0.00000   0.00000   0.00000   0.00000   0.00000   0.00000
    Z1        0.00000  -0.00000   0.00000  -0.00000   0.00000   0.00000
    X2       -1.22832  -0.09074   0.00000   0.11545   0.03449  -1.19383
    Y2        0.00000  -0.00000   0.00000  -0.00000  -0.00000  -0.00000
    Z2        0.00000   0.00000   0.00000   0.00000  -0.00000  -0.00000
    X3        6.14161  -0.00046   0.00000  -0.12144  -0.20240   5.93921
    Y3        0.00000  -0.00000   0.00000  -0.00000  -0.00000  -0.00000
    Z3        0.00000   0.00000   0.00000   0.00000  -0.00000  -0.00000
         Item               Value     Threshold  Converged?
 Maximum Force            0.091193     0.000450     NO 
 RMS     Force            0.042882     0.000300     NO 
 Maximum Displacement     0.202402     0.001800     NO 
 RMS     Displacement     0.088412     0.001200     NO 
 Predicted change in Energy=-6.206928D-03
 GradGradGradGradGradGradGradGradGradGradGradGradGradGradGradGradGradGrad


 ----------------------------------------------------------------------

 Electric dipole moment (input orientation):
 (Debye = 10**-18 statcoulomb cm , SI units = C m)
                  (au)            (Debye)         (10**-30 SI)
   Tot        0.274342D-01      0.697307D-01      0.232596D+00
   x          0.274342D-01      0.697307D-01      0.232596D+00
   y          0.000000D+00      0.000000D+00      0.000000D+00
   z          0.000000D+00      0.000000D+00      0.000000D+00

 Dipole polarizability, Alpha (input orientation).
 (esu units = cm**3 , SI units = C**2 m**2 J**-1)
 Alpha(0;0):
               (au)            (10**-24 esu)      (10**-40 SI)
   iso        0.383204D+01      0.567849D+00      0.631818D+00
   aniso      0.511361D+01      0.757759D+00      0.843120D+00
   xx         0.723065D+01      0.107147D+01      0.119217D+01
   yx         0.000000D+00      0.000000D+00      0.000000D+00
   yy         0.213382D+01      0.316200D+00      0.351820D+00
   zx         0.000000D+00      0.000000D+00      0.000000D+00
   zy        -0.231121D+00     -0.342486D-01     -0.381067D-01
   zz         0.213164D+01      0.315877D+00      0.351461D+00

 ----------------------------------------------------------------------

 Dipole orientation:
     1         -0.00000000          0.00000000          0.00000000
     1          0.00000091          0.00000092         -1.22832198
     9         -0.00000455         -0.00000459          6.14160990

 Electric dipole moment (dipole orientation):
 (Debye = 10**-18 statcoulomb cm , SI units = C m)
                  (au)            (Debye)         (10**-30 SI)
   Tot        0.274342D-01      0.697307D-01      0.232596D+00
   x          0.000000D+00      0.000000D+00      0.000000D+00
   y          0.000000D+00      0.000000D+00      0.000000D+00
   z          0.274342D-01      0.697307D-01      0.232596D+00

 Dipole polarizability, Alpha (dipole orientation).
 (esu units = cm**3 , SI units = C**2 m**2 J**-1)
 Alpha(0;0):
               (au)            (10**-24 esu)      (10**-40 SI)
   iso        0.383204D+01      0.567849D+00      0.631818D+00
   aniso      0.511361D+01      0.757759D+00      0.843120D+00
   xx         0.213164D+01      0.315877D+00      0.351461D+00
   yx         0.231121D+00      0.342486D-01      0.381067D-01
   yy         0.213382D+01      0.316200D+00      0.351820D+00
   zx         0.000000D+00      0.000000D+00      0.000000D+00
   zy         0.000000D+00      0.000000D+00      0.000000D+00
   zz         0.723065D+01      0.107147D+01      0.119217D+01

 ----------------------------------------------------------------------
 Unable to Open any file for archive entry.
 1\1\GINC-DESKTOP-B3RIHJD\Freq\UB3LYP\6-311G(d,p)\F1H2(2)\GARYX\22-Aug-
 2025\0\\# sp b3lyp/6-311g** Force nosymm scf=(qc)\\Title Card Required
 \\0,2\H,0.,0.,0.\H,-0.65,0.,0.\F,3.25,0.,0.\\Version=ES64L-G16RevC.01\
 HF=-100.92697\S2=0.750982\S2-1=0.\S2A=0.750001\RMSD=6.179e-09\RMSF=4.2
 88e-02\ZeroPoint=0.013721\Thermal=0.0169229\ETot=-100.910047\HTot=-100
 .9091029\GTot=-100.9350638\Dipole=0.0274342,0.,0.\DipoleDeriv=0.016743
 1,0.,0.,0.,-0.0043699,-0.0000194,0.,-0.0000193,-0.00437,0.00082,0.,0.,
 0.,-0.0000612,-0.0000012,0.,-0.0000013,-0.0000612,-0.0175631,0.,0.,0.,
 0.0044311,0.0000206,0.,0.0000206,0.0044312\Polar=7.2306484,0.0000013,2
 .1338214,-0.0000013,-0.2311212,2.1316445\Quadrupole=0.1470305,-0.07200
 2,-0.0750285,0.000002,-0.0000019,-0.3211122\PG=C*V [C*(H1H1F1)]\NImag=
 2\\0.68105428,0.,-0.07291643,0.,-0.00001658,-0.07291651,-0.68098887,0.
 ,0.,0.68107470,0.,0.07314390,0.00000424,0.,-0.07326867,0.,0.00000424,0
 .07314395,0.,0.00000019,-0.07326867,-0.00006541,0.,0.,-0.00008583,0.,0
 .,0.00015124,0.,-0.00022747,0.00001234,0.,0.00012477,-0.00000443,0.,0.
 00010270,0.,0.00001234,-0.00022744,0.,-0.00000443,0.00012473,0.,-0.000
 00792,0.00010271\\-0.09119276,0.,0.,0.09073690,0.,0.,0.00045586,0.,0.\
 \\@
 The archive entry for this job was punched.


 ABALONE: AN EXPRESSION OF DISBELIEF.
 Job cpu time:       0 days  0 hours  1 minutes 11.7 seconds.
 Elapsed time:       0 days  0 hours  0 minutes  9.6 seconds.
 File lengths (MBytes):  RWF=      6 Int=      0 D2E=      0 Chk=      1 Scr=      1
 Normal termination of Gaussian 16 at Fri Aug 22 20:26:26 2025.
