 Entering Gaussian System, Link 0=g16
 Initial command:
 /home/garyx/gaussian/g16/l1.exe "/tmp/gaussian_scratch/Gau-91978.inp" -scrdir="/tmp/gaussian_scratch/"
 Entering Link 1 = /home/garyx/gaussian/g16/l1.exe PID=     91980.
  
 Copyright (c) 1988-2019, Gaussian, Inc.  All Rights Reserved.
  
 This is part of the Gaussian(R) 16 program.  It is based on
 the Gaussian(R) 09 system (copyright 2009, Gaussian, Inc.),
 the Gaussian(R) 03 system (copyright 2003, Gaussian, Inc.),
 the Gaussian(R) 98 system (copyright 1998, Gaussian, Inc.),
 the Gaussian(R) 94 system (copyright 1995, Gaussian, Inc.),
 the Gaussian 92(TM) system (copyright 1992, Gaussian, Inc.),
 the Gaussian 90(TM) system (copyright 1990, Gaussian, Inc.),
 the Gaussian 88(TM) system (copyright 1988, Gaussian, Inc.),
 the Gaussian 86(TM) system (copyright 1986, Carnegie Mellon
 University), and the Gaussian 82(TM) system (copyright 1983,
 Carnegie Mellon University). Gaussian is a federally registered
 trademark of Gaussian, Inc.
  
 This software contains proprietary and confidential information,
 including trade secrets, belonging to Gaussian, Inc.
  
 This software is provided under written license and may be
 used, copied, transmitted, or stored only in accord with that
 written license.
  
 The following legend is applicable only to US Government
 contracts under FAR:
  
                    RESTRICTED RIGHTS LEGEND
  
 Use, reproduction and disclosure by the US Government is
 subject to restrictions as set forth in subparagraphs (a)
 and (c) of the Commercial Computer Software - Restricted
 Rights clause in FAR 52.227-19.
  
 Gaussian, Inc.
 340 Quinnipiac St., Bldg. 40, Wallingford CT 06492
  
  
 ---------------------------------------------------------------
 Warning -- This program may not be used in any manner that
 competes with the business of Gaussian, Inc. or will provide
 assistance to any competitor of Gaussian, Inc.  The licensee
 of this program is prohibited from giving any competitor of
 Gaussian, Inc. access to this program.  By using this program,
 the user acknowledges that Gaussian, Inc. is engaged in the
 business of creating and licensing software in the field of
 computational chemistry and represents and warrants to the
 licensee that it is not a competitor of Gaussian, Inc. and that
 it will not use this program in any manner prohibited above.
 ---------------------------------------------------------------
  

 Cite this work as:
 Gaussian 16, Revision C.01,
 M. J. Frisch, G. W. Trucks, H. B. Schlegel, G. E. Scuseria, 
 M. A. Robb, J. R. Cheeseman, G. Scalmani, V. Barone, 
 G. A. Petersson, H. Nakatsuji, X. Li, M. Caricato, A. V. Marenich, 
 J. Bloino, B. G. Janesko, R. Gomperts, B. Mennucci, H. P. Hratchian, 
 J. V. Ortiz, A. F. Izmaylov, J. L. Sonnenberg, D. Williams-Young, 
 F. Ding, F. Lipparini, F. Egidi, J. Goings, B. Peng, A. Petrone, 
 T. Henderson, D. Ranasinghe, V. G. Zakrzewski, J. Gao, N. Rega, 
 G. Zheng, W. Liang, M. Hada, M. Ehara, K. Toyota, R. Fukuda, 
 J. Hasegawa, M. Ishida, T. Nakajima, Y. Honda, O. Kitao, H. Nakai, 
 T. Vreven, K. Throssell, J. A. Montgomery, Jr., J. E. Peralta, 
 F. Ogliaro, M. J. Bearpark, J. J. Heyd, E. N. Brothers, K. N. Kudin, 
 V. N. Staroverov, T. A. Keith, R. Kobayashi, J. Normand, 
 K. Raghavachari, A. P. Rendell, J. C. Burant, S. S. Iyengar, 
 J. Tomasi, M. Cossi, J. M. Millam, M. Klene, C. Adamo, R. Cammi, 
 J. W. Ochterski, R. L. Martin, K. Morokuma, O. Farkas, 
 J. B. Foresman, and D. J. Fox, Gaussian, Inc., Wallingford CT, 2019.
 
 ******************************************
 Gaussian 16:  ES64L-G16RevC.01  3-Jul-2019
                22-Aug-2025 
 ******************************************
 %mem=10GB
 %nprocs=8
 Will use up to    8 processors via shared memory.
 -----------------------------------------
 # sp b3lyp/6-311g** Force nosymm scf=(qc)
 -----------------------------------------
 1/10=4,30=1,38=1/1,3;
 2/12=2,15=1,17=6,18=5,40=1/2;
 3/5=4,6=6,7=101,11=2,25=1,30=1,71=2,74=-5,140=1/1,2,3;
 4//1;
 5/5=2,8=3,38=5,98=1/8;
 8/6=4,10=90,11=11/1;
 11/6=1,8=1,9=11,15=111,16=1,31=1/1,2,10;
 10/6=1,31=1/2;
 6/7=2,8=2,9=2,10=2,28=1/1;
 7/8=1,10=1,25=1,30=1/1,2,3,16;
 1/10=4,30=1/3;
 99//99;
 -------------------
 Title Card Required
 -------------------
 Symbolic Z-matrix:
 Charge =  0 Multiplicity = 2
 H                     0.        0.        0. 
 H                    -3.75      0.        0. 
 F                     0.6       0.        0. 
 

 GradGradGradGradGradGradGradGradGradGradGradGradGradGradGradGradGradGrad
 Berny optimization.
 Initialization pass.
 Trust Radius=3.00D-01 FncErr=1.00D-07 GrdErr=1.00D-07 EigMax=2.50D+02 EigMin=1.00D-04
 Number of steps in this run=      2 maximum allowed number of steps=      2.
 GradGradGradGradGradGradGradGradGradGradGradGradGradGradGradGradGradGrad

                          Input orientation:                          
 ---------------------------------------------------------------------
 Center     Atomic      Atomic             Coordinates (Angstroms)
 Number     Number       Type             X           Y           Z
 ---------------------------------------------------------------------
      1          1           0        0.000000    0.000000    0.000000
      2          1           0       -3.750000    0.000000    0.000000
      3          9           0        0.600000    0.000000    0.000000
 ---------------------------------------------------------------------
                    Distance matrix (angstroms):
                    1          2          3
     1  H    0.000000
     2  H    3.750000   0.000000
     3  F    0.600000   4.350000   0.000000
 Symmetry turned off by external request.
 Stoichiometry    FH2(2)
 Framework group  C*V[C*(HHF)]
 Deg. of freedom     2
 Full point group                 C*V     NOp   4
 Rotational constants (GHZ):           0.0000000          27.6934248          27.6934248
 Standard basis: 6-311G(d,p) (5D, 7F)
    30 basis functions,    48 primitive gaussians,    31 cartesian basis functions
     6 alpha electrons        5 beta electrons
       nuclear repulsion energy         9.1736214886 Hartrees.
 NAtoms=    3 NActive=    3 NUniq=    3 SFac= 1.00D+00 NAtFMM=   60 NAOKFM=F Big=F
 Integral buffers will be    131072 words long.
 Raffenetti 2 integral format.
 Two-electron integral symmetry is turned off.
 One-electron integrals computed using PRISM.
 NBasis=    30 RedAO= T EigKep=  6.66D-03  NBF=    30
 NBsUse=    30 1.00D-06 EigRej= -1.00D+00 NBFU=    30
 ExpMin= 1.03D-01 ExpMax= 1.14D+04 ExpMxC= 1.72D+03 IAcc=3 IRadAn=         5 AccDes= 0.00D+00
 Harris functional with IExCor=  402 and IRadAn=       5 diagonalized for initial guess.
 HarFok:  IExCor=  402 AccDes= 0.00D+00 IRadAn=         5 IDoV= 1 UseB2=F ITyADJ=14
 ICtDFT=  3500011 ScaDFX=  1.000000  1.000000  1.000000  1.000000
 FoFCou: FMM=F IPFlag=           0 FMFlag=      100000 FMFlg1=           0
         NFxFlg=           0 DoJE=T BraDBF=F KetDBF=T FulRan=T
         wScrn=  0.000000 ICntrl=       500 IOpCl=  0 I1Cent=   200000004 NGrid=           0
         NMat0=    1 NMatS0=      1 NMatT0=    0 NMatD0=    1 NMtDS0=    0 NMtDT0=    0
 Symmetry not used in FoFCou.
 Initial guess <Sx>= 0.0000 <Sy>= 0.0000 <Sz>= 0.5000 <S**2>= 0.7500 S= 0.5000
 Keep R1 and R2 ints in memory in canonical form, NReq=7127049.
 Gradient too large for Newton-Raphson -- use scaled steepest descent instead.
     Accept linear search using points  2 and  3.
 Gradient too large for Newton-Raphson -- use scaled steepest descent instead.
     Accept linear search using points  2 and  3.
 Gradient too large for Newton-Raphson -- use scaled steepest descent instead.
     Minimum is close to point  3 DX=  1.42D-02 DF= -6.42D-08 DXR=  1.55D-02 DFR=  2.40D-04 which will be used.
 LinEq1:  Iter=  0 NonCon=     1 RMS=2.65D-04 Max=2.18D-03 NDo=     1
 AX will form     1 AO Fock derivatives at one time.
 LinEq1:  Iter=  1 NonCon=     1 RMS=1.43D-04 Max=1.33D-03 NDo=     1
 LinEq1:  Iter=  2 NonCon=     1 RMS=1.69D-05 Max=8.19D-05 NDo=     1
 LinEq1:  Iter=  3 NonCon=     1 RMS=1.54D-06 Max=1.98D-05 NDo=     1
 LinEq1:  Iter=  4 NonCon=     1 RMS=2.96D-08 Max=1.60D-07 NDo=     1
 LinEq1:  Iter=  5 NonCon=     1 RMS=3.32D-09 Max=1.89D-08 NDo=     1
 LinEq1:  Iter=  6 NonCon=     0 RMS=3.23D-10 Max=2.40D-09 NDo=     1
 Linear equations converged to 1.640D-09 1.640D-08 after     6 iterations.
     Minimum is close to point  2 DX=  2.56D-06 DF=  0.00D+00 DXR=  2.56D-06 DFR=  0.00D+00 which will be used.
 LinEq1:  Iter=  0 NonCon=     1 RMS=1.64D-07 Max=2.02D-06 NDo=     1
 LinEq1:  Iter=  1 NonCon=     1 RMS=4.95D-08 Max=2.75D-07 NDo=     1
 LinEq1:  Iter=  2 NonCon=     1 RMS=7.06D-09 Max=3.60D-08 NDo=     1
 LinEq1:  Iter=  3 NonCon=     1 RMS=1.12D-09 Max=7.62D-09 NDo=     1
 LinEq1:  Iter=  4 NonCon=     1 RMS=7.89D-11 Max=4.73D-10 NDo=     1
 LinEq1:  Iter=  5 NonCon=     0 RMS=5.52D-12 Max=3.82D-11 NDo=     1
 Linear equations converged to 2.563D-11 2.563D-10 after     5 iterations.
 SCF Done:  E(UB3LYP) =  -100.687895923     a.u. after    6 cycles
            Convg  =    0.4019D-09                    24 Fock formations.
              S**2 =  0.7500                  -V/T =  1.9859
 <Sx>= 0.0000 <Sy>= 0.0000 <Sz>= 0.5000 <S**2>= 0.7500 S= 0.5000
 <L.S>=  0.00000000000    
 Annihilation of the first spin contaminant:
 S**2 before annihilation     0.7500,   after     0.7500
 DoSCS=F DFT=T ScalE2(SS,OS)=  1.000000  1.000000
 Range of M.O.s used for correlation:     1    30
 NBasis=    30 NAE=     6 NBE=     5 NFC=     0 NFV=     0
 NROrb=     30 NOA=     6 NOB=     5 NVA=    24 NVB=    25
 Symmetrizing basis deriv contribution to polar:
 IMax=3 JMax=2 DiffMx= 0.00D+00
 G2DrvN: will do     4 centers at a time, making    1 passes.
 Calling FoFCou, ICntrl=  3107 FMM=F I1Cent=   0 AccDes= 0.00D+00.
 End of G2Drv F.D. properties file   721 does not exist.
 End of G2Drv F.D. properties file   722 does not exist.
 End of G2Drv F.D. properties file   788 does not exist.
          IDoAtm=111
          Differentiating once with respect to electric field.
                with respect to dipole field.
          Differentiating once with respect to nuclear coordinates.
 Keep R1 and R2 ints in memory in canonical form, NReq=7101519.
          There are    12 degrees of freedom in the 1st order CPHF.  IDoFFX=6 NUNeed=     3.
      9 vectors produced by pass  0 Test12= 2.24D-15 8.33D-09 XBig12= 1.48D+00 5.55D-01.
 AX will form     9 AO Fock derivatives at one time.
      9 vectors produced by pass  1 Test12= 2.24D-15 8.33D-09 XBig12= 4.53D-02 6.49D-02.
      9 vectors produced by pass  2 Test12= 2.24D-15 8.33D-09 XBig12= 4.83D-04 8.28D-03.
      9 vectors produced by pass  3 Test12= 2.24D-15 8.33D-09 XBig12= 5.75D-07 3.20D-04.
      6 vectors produced by pass  4 Test12= 2.24D-15 8.33D-09 XBig12= 3.47D-10 6.90D-06.
      4 vectors produced by pass  5 Test12= 2.24D-15 8.33D-09 XBig12= 1.16D-12 3.37D-07.
      1 vectors produced by pass  6 Test12= 2.24D-15 8.33D-09 XBig12= 9.43D-15 2.87D-08.
 InvSVY:  IOpt=1 It=  1 EMax= 6.66D-16
 Solved reduced A of dimension    47 with     9 vectors.
 Isotropic polarizability for W=    0.000000        2.72 Bohr**3.
 End of Minotr F.D. properties file   721 does not exist.
 End of Minotr F.D. properties file   722 does not exist.
 End of Minotr F.D. properties file   788 does not exist.

 **********************************************************************

            Population analysis using the SCF Density.

 **********************************************************************

 Alpha  occ. eigenvalues --  -24.62731  -1.34731  -0.61026  -0.42982  -0.42982
 Alpha  occ. eigenvalues --   -0.33189
 Alpha virt. eigenvalues --    0.07382   0.24701   0.58070   0.92119   0.92119
 Alpha virt. eigenvalues --    0.93148   1.24191   1.24317   1.24317   1.33370
 Alpha virt. eigenvalues --    1.50261   1.50261   1.95408   2.14465   3.36520
 Alpha virt. eigenvalues --    3.77799   3.77799   4.43863   4.43863   5.22881
 Alpha virt. eigenvalues --    6.06382   6.06382   7.43697  67.10304
  Beta  occ. eigenvalues --  -24.62731  -1.34730  -0.61026  -0.42982  -0.42982
  Beta virt. eigenvalues --   -0.05042   0.07639   0.38975   0.58055   0.92119
  Beta virt. eigenvalues --    0.92119   0.93144   1.33060   1.49227   1.49730
  Beta virt. eigenvalues --    1.49730   1.50261   1.50261   1.95382   2.45666
  Beta virt. eigenvalues --    3.36493   3.77799   3.77799   4.43863   4.43863
  Beta virt. eigenvalues --    5.22860   6.06382   6.06382   7.43673  67.10304
          Condensed to atoms (all electrons):
               1          2          3
     1  H    0.415748   0.000495   0.345431
     2  H    0.000495   0.999071  -0.000020
     3  F    0.345431  -0.000020   8.893371
          Atomic-Atomic Spin Densities.
               1          2          3
     1  H   -0.000304   0.000463   0.000188
     2  H    0.000463   0.999045  -0.000029
     3  F    0.000188  -0.000029   0.000015
 Mulliken charges and spin densities:
               1          2
     1  H    0.238327   0.000347
     2  H    0.000455   0.999480
     3  F   -0.238781   0.000174
 Sum of Mulliken charges =   0.00000   1.00000
 Mulliken charges and spin densities with hydrogens summed into heavy atoms:
               1          2
     3  F    0.000000   1.000000
 APT charges:
               1
     1  H    0.430751
     2  H   -0.000615
     3  F   -0.430136
 Sum of APT charges =   0.00000
 APT charges with hydrogens summed into heavy atoms:
               1
     3  F    0.000000
 Electronic spatial extent (au):  <R**2>=             76.7278
 Charge=              0.0000 electrons
 Dipole moment (field-independent basis, Debye):
    X=             -1.4357    Y=             -0.0000    Z=             -0.0000  Tot=              1.4357
 Quadrupole moment (field-independent basis, Debye-Ang):
   XX=             -6.9899   YY=             -6.5520   ZZ=             -6.5520
   XY=             -0.0000   XZ=             -0.0000   YZ=             -0.0000
 Traceless Quadrupole moment (field-independent basis, Debye-Ang):
   XX=             -0.2919   YY=              0.1460   ZZ=              0.1460
   XY=             -0.0000   XZ=             -0.0000   YZ=             -0.0000
 Octapole moment (field-independent basis, Debye-Ang**2):
  XXX=              6.3181  YYY=             -0.0000  ZZZ=             -0.0000  XYY=              2.1781
  XXY=             -0.0000  XXZ=             -0.0000  XZZ=              2.1781  YZZ=             -0.0000
  YYZ=             -0.0000  XYZ=             -0.0000
 Hexadecapole moment (field-independent basis, Debye-Ang**3):
 XXXX=           -130.2301 YYYY=             -4.6205 ZZZZ=             -4.6205 XXXY=             -0.0000
 XXXZ=             -0.0000 YYYX=             -0.0000 YYYZ=             -0.0000 ZZZX=             -0.0000
 ZZZY=             -0.0000 XXYY=            -22.8506 XXZZ=            -22.8506 YYZZ=             -1.5402
 XXYZ=             -0.0000 YYXZ=             -0.0000 ZZXY=             -0.0000
 N-N= 9.173621488615D+00 E-N=-2.600240921096D+02  KE= 1.021321988072D+02
  Exact polarizability:       3.276      -0.000       2.436       0.000       0.000       2.436
 Approx polarizability:       3.523       0.000       2.414       0.000      -0.000       2.414
                          Isotropic Fermi Contact Couplings
        Atom                 a.u.       MegaHertz       Gauss      10(-4) cm-1
     1  H(1)              -0.00003      -0.11314      -0.04037      -0.03774
     2  H(1)               0.29689    1327.07184     473.53223     442.66352
     3  F(19)             -0.00016      -0.67010      -0.23911      -0.22352
 --------------------------------------------------------
       Center         ----  Spin Dipole Couplings  ----
                      3XX-RR        3YY-RR        3ZZ-RR
 --------------------------------------------------------
     1   Atom        0.005773     -0.002887     -0.002887
     2   Atom        0.000041     -0.000020     -0.000020
     3   Atom        0.003995     -0.001998     -0.001998
 --------------------------------------------------------
                        XY            XZ            YZ
 --------------------------------------------------------
     1   Atom        0.000000      0.000000      0.000000
     2   Atom        0.000000      0.000000      0.000000
     3   Atom        0.000000      0.000000      0.000000
 --------------------------------------------------------


 ---------------------------------------------------------------------------------
              Anisotropic Spin Dipole Couplings in Principal Axis System
 ---------------------------------------------------------------------------------

       Atom             a.u.   MegaHertz   Gauss  10(-4) cm-1        Axes

              Baa    -0.0029    -1.540    -0.550    -0.514  0.0000  0.0000  1.0000
     1 H(1)   Bbb    -0.0029    -1.540    -0.550    -0.514 -0.0000  1.0000  0.0000
              Bcc     0.0058     3.080     1.099     1.027  1.0000  0.0000  0.0000
 
              Baa    -0.0000    -0.011    -0.004    -0.004 -0.0000  1.0000  0.0000
     2 H(1)   Bbb    -0.0000    -0.011    -0.004    -0.004  0.0000  0.0000  1.0000
              Bcc     0.0000     0.022     0.008     0.007  1.0000  0.0000  0.0000
 
              Baa    -0.0020    -1.003    -0.358    -0.335  0.0000  0.0000  1.0000
     3 F(19)  Bbb    -0.0020    -1.003    -0.358    -0.335 -0.0000  1.0000  0.0000
              Bcc     0.0040     2.007     0.716     0.669  1.0000  0.0000  0.0000
 

 ---------------------------------------------------------------------------------

 Calling FoFJK, ICntrl=    100127 FMM=F ISym2X=0 I1Cent= 0 IOpClX= 1 NMat=1 NMatS=1 NMatT=0.
 Full mass-weighted force constant matrix:
 Low frequencies ----5948.1703-5948.1703  -32.0133    0.0012    0.0026    0.0026
 Low frequencies ---   11.3480   11.348013070.5881
 ******    3 imaginary frequencies (negative Signs) ****** 
 Diagonal vibrational polarizability:
        0.3436234       0.1876049       0.1876049
 Harmonic frequencies (cm**-1), IR intensities (KM/Mole), Raman scattering
 activities (A**4/AMU), depolarization ratios for plane and unpolarized
 incident light, reduced masses (AMU), force constants (mDyne/A),
 and normal coordinates:
                      1                      2                      3
                      A                      A                      A
 Frequencies --  -5891.7523             -5891.7523               -32.0133
 Red. masses --      1.0447                 1.0447                 1.0532
 Frc consts  --     21.3658                21.3658                 0.0006
 IR Inten    --    241.9914               241.9914                 0.0125
  Atom  AN      X      Y      Z        X      Y      Z        X      Y      Z
     1   1     0.00  -0.01   0.99     0.00   0.99   0.01    -0.05  -0.00  -0.00
     2   1     0.00   0.00  -0.14     0.00  -0.14  -0.00     1.00   0.00   0.00
     3   9    -0.00   0.00  -0.05    -0.00  -0.05  -0.00    -0.05   0.00   0.00
                      4
                      A
 Frequencies --  13070.5881
 Red. masses --      1.0583
 Frc consts  --    106.5255
 IR Inten    --     96.4921
  Atom  AN      X      Y      Z
     1   1     1.00  -0.00  -0.00
     2   1     0.00   0.00   0.00
     3   9    -0.05   0.00   0.00

 -------------------
 - Thermochemistry -
 -------------------
 Temperature   298.150 Kelvin.  Pressure   1.00000 Atm.
 Atom     1 has atomic number  1 and mass   1.00783
 Atom     2 has atomic number  1 and mass   1.00783
 Atom     3 has atomic number  9 and mass  18.99840
 Molecular mass:    21.01405 amu.
 Principal axes and moments of inertia in atomic units:
                           1         2         3
     Eigenvalues --     0.00000  65.16858  65.16858
           X            1.00000  -0.00000   0.00000
           Y            0.00000   1.00000   0.00000
           Z            0.00000   0.00000   1.00000
 This molecule is a prolate symmetric top.
 Rotational symmetry number  1.
 Rotational temperature (Kelvin)      1.32907
 Rotational constant (GHZ):          27.693425
    3 imaginary frequencies ignored.
 Zero-point vibrational energy      78179.5 (Joules/Mol)
                                   18.68534 (Kcal/Mol)
 Vibrational temperatures:  18805.66
          (Kelvin)
 
 Zero-point correction=                           0.029777 (Hartree/Particle)
 Thermal correction to Energy=                    0.032137
 Thermal correction to Enthalpy=                  0.033082
 Thermal correction to Gibbs Free Energy=         0.009710
 Sum of electronic and zero-point Energies=           -100.658119
 Sum of electronic and thermal Energies=              -100.655758
 Sum of electronic and thermal Enthalpies=            -100.654814
 Sum of electronic and thermal Free Energies=         -100.678186
 
                     E (Thermal)             CV                S
                      KCal/Mol        Cal/Mol-Kelvin    Cal/Mol-Kelvin
 Total                   20.167              4.968             49.190
 Electronic               0.000              0.000              1.377
 Translational            0.889              2.981             35.068
 Rotational               0.592              1.987             12.744
 Vibrational             18.685              0.000              0.000
                       Q            Log10(Q)             Ln(Q)
 Total Bot       0.341728D-04         -4.466319        -10.284079
 Total V=0       0.169877D+10          9.230134         21.253169
 Vib (Bot)       0.201163D-13        -13.696453        -31.537248
 Vib (V=0)       0.100000D+01          0.000000          0.000000
 Electronic      0.200000D+01          0.301030          0.693147
 Translational   0.378633D+07          6.578219         15.146908
 Rotational      0.224329D+03          2.350885          5.413114
 -------------------------------------------------------------------
 Center     Atomic                   Forces (Hartrees/Bohr)
 Number     Number              X              Y              Z
 -------------------------------------------------------------------
      1        1          -1.452895642   -0.000000000   -0.000000000
      2        1           0.000038152    0.000000000    0.000000000
      3        9           1.452857490    0.000000000    0.000000000
 -------------------------------------------------------------------
 Cartesian Forces:  Max     1.452895642 RMS     0.684892582

 GradGradGradGradGradGradGradGradGradGradGradGradGradGradGradGradGradGrad
 Berny optimization.
 Search for a local minimum.
 Step number   1 out of a maximum of    2
 All quantities printed in internal units (Hartrees-Bohrs-Radians)
 Second derivative matrix not updated -- analytic derivatives used.
 The second derivative matrix:
                          X1        Y1        Z1        X2        Y2
           X1           6.18754
           Y1          -0.00000  -1.28143
           Z1          -0.00000   0.00000  -1.28143
           X2           0.00005  -0.00000  -0.00000  -0.00004
           Y2           0.00000  -0.00000   0.00000  -0.00000   0.00000
           Z2           0.00000  -0.00000  -0.00000  -0.00000  -0.00000
           X3          -6.18760   0.00000   0.00000  -0.00002  -0.00000
           Y3           0.00000   1.28143   0.00000   0.00000  -0.00000
           Z3           0.00000   0.00000   1.28143   0.00000  -0.00000
                          Z2        X3        Y3        Z3
           Z2           0.00000
           X3           0.00000   6.18761
           Y3           0.00000  -0.00000  -1.28143
           Z3          -0.00000  -0.00000  -0.00000  -1.28143
 ITU=  0
     Eigenvalues ---   -1.92783  -1.92783  -0.00005  10.12513
 Eigenvalue     1 is  -1.93D+00 should be greater than     0.000000 Eigenvector:
                          Z1        Z3        Z2        Y1        Y3
   1                    0.95270  -0.27376  -0.13141  -0.01199   0.00344
                          Y2        X1        X3        X2
   1                    0.00165   0.00000  -0.00000   0.00000
 Eigenvalue     2 is  -1.93D+00 should be greater than     0.000000 Eigenvector:
                          Y1        Y3        Y2        Z1        Z3
   1                    0.95270  -0.27376  -0.13141   0.01199  -0.00344
                          Z2        X1        X3        X2
   1                   -0.00165   0.00000  -0.00000   0.00000
 Eigenvalue     3 is  -5.17D-05 should be greater than     0.000000 Eigenvector:
                          X2        X1        X3        Z1        Y1
   1                    0.94281  -0.23571  -0.23570  -0.00000  -0.00000
                          Z3        Y3        Z2        Y2
   1                    0.00000   0.00000   0.00000   0.00000
 Quadratic step=1.093D+00 exceeds max=3.000D-01 adjusted using Lamda=-1.828D-04.
 Angle between NR and scaled steps=  28.03 degrees.
 Angle between quadratic step and forces=  56.42 degrees.
 Linear search not attempted -- first point.
 B after Tr=     0.006161   -0.000000    0.000000
         Rot=    0.879326   -0.476220    0.000000    0.000000 Ang= -56.88 deg.
 Variable       Old X    -DE/DX   Delta X   Delta X   Delta X     New X
                                 (Linear)    (Quad)   (Total)
    X1        0.00000  -1.45290   0.00000  -0.22556  -0.21940  -0.21940
    Y1        0.00000  -0.00000   0.00000  -0.00000   0.00000   0.00000
    Z1        0.00000  -0.00000   0.00000  -0.00000  -0.00000  -0.00000
    X2       -7.08647   0.00004   0.00000   0.19784   0.20400  -6.88247
    Y2        0.00000   0.00000   0.00000   0.00000  -0.00000  -0.00000
    Z2        0.00000   0.00000   0.00000   0.00000   0.00000   0.00000
    X3        1.13384   1.45286   0.00000   0.00924   0.01540   1.14924
    Y3        0.00000   0.00000   0.00000   0.00000  -0.00000  -0.00000
    Z3        0.00000   0.00000   0.00000   0.00000   0.00000   0.00000
         Item               Value     Threshold  Converged?
 Maximum Force            1.452896     0.000450     NO 
 RMS     Force            0.684893     0.000300     NO 
 Maximum Displacement     0.219402     0.001800     NO 
 RMS     Displacement     0.099995     0.001200     NO 
 Predicted change in Energy=-1.705872D-01
 GradGradGradGradGradGradGradGradGradGradGradGradGradGradGradGradGradGrad


 ----------------------------------------------------------------------

 Electric dipole moment (input orientation):
 (Debye = 10**-18 statcoulomb cm , SI units = C m)
                  (au)            (Debye)         (10**-30 SI)
   Tot        0.564838D+00      0.143567D+01      0.478889D+01
   x         -0.564838D+00     -0.143567D+01     -0.478889D+01
   y          0.000000D+00      0.000000D+00      0.000000D+00
   z          0.000000D+00      0.000000D+00      0.000000D+00

 Dipole polarizability, Alpha (input orientation).
 (esu units = cm**3 , SI units = C**2 m**2 J**-1)
 Alpha(0;0):
               (au)            (10**-24 esu)      (10**-40 SI)
   iso        0.271563D+01      0.402414D+00      0.447746D+00
   aniso      0.840018D+00      0.124478D+00      0.138500D+00
   xx         0.327564D+01      0.485400D+00      0.540080D+00
   yx         0.000000D+00      0.000000D+00      0.000000D+00
   yy         0.243562D+01      0.360922D+00      0.401579D+00
   zx         0.000000D+00      0.000000D+00      0.000000D+00
   zy         0.000000D+00      0.000000D+00      0.000000D+00
   zz         0.243562D+01      0.360922D+00      0.401579D+00

 ----------------------------------------------------------------------

 Dipole orientation:
     1          0.00000000          0.00000000         -0.00000000
     1          0.00000000          0.00000000          7.08647297
     9         -0.00000000         -0.00000000         -1.13383567

 Electric dipole moment (dipole orientation):
 (Debye = 10**-18 statcoulomb cm , SI units = C m)
                  (au)            (Debye)         (10**-30 SI)
   Tot        0.564838D+00      0.143567D+01      0.478889D+01
   x          0.000000D+00      0.000000D+00      0.000000D+00
   y          0.000000D+00      0.000000D+00      0.000000D+00
   z          0.564838D+00      0.143567D+01      0.478889D+01

 Dipole polarizability, Alpha (dipole orientation).
 (esu units = cm**3 , SI units = C**2 m**2 J**-1)
 Alpha(0;0):
               (au)            (10**-24 esu)      (10**-40 SI)
   iso        0.271563D+01      0.402414D+00      0.447746D+00
   aniso      0.840018D+00      0.124478D+00      0.138500D+00
   xx         0.243562D+01      0.360922D+00      0.401579D+00
   yx         0.000000D+00      0.000000D+00      0.000000D+00
   yy         0.243562D+01      0.360922D+00      0.401579D+00
   zx         0.000000D+00      0.000000D+00      0.000000D+00
   zy         0.000000D+00      0.000000D+00      0.000000D+00
   zz         0.327564D+01      0.485400D+00      0.540080D+00

 ----------------------------------------------------------------------
 Unable to Open any file for archive entry.
 1\1\GINC-DESKTOP-B3RIHJD\Freq\UB3LYP\6-311G(d,p)\F1H2(2)\GARYX\22-Aug-
 2025\0\\# sp b3lyp/6-311g** Force nosymm scf=(qc)\\Title Card Required
 \\0,2\H,0.,0.,0.\H,-3.75,0.,0.\F,0.6,0.,0.\\Version=ES64L-G16RevC.01\H
 F=-100.6878959\S2=0.75\S2-1=0.\S2A=0.75\RMSD=2.450e-11\RMSF=6.849e-01\
 ZeroPoint=0.029777\Thermal=0.0321375\ETot=-100.6557585\HTot=-100.65481
 43\GTot=-100.6781859\Dipole=-0.5648377,0.,0.\DipoleDeriv=0.3079555,0.,
 0.,0.,0.4921487,0.,0.,0.,0.4921487,-0.003506,0.,0.,0.,0.0008299,0.,0.,
 0.,0.0008299,-0.3044495,0.,0.,0.,-0.4929785,0.,0.,0.,-0.4929785\Polar=
 3.2756385,0.,2.43562,0.,0.,2.43562\Quadrupole=-0.2170401,0.10852,0.108
 52,0.,0.,0.\PG=C*V [C*(H1H1F1)]\NImag=3\\6.18754484,0.,-1.28143110,0.,
 0.,-1.28143110,0.00005321,0.,0.,-0.00003721,0.,-0.00000003,0.,0.,0.000
 00468,0.,0.,-0.00000003,0.,0.,0.00000468,-6.18759806,0.,0.,-0.00001600
 ,0.,0.,6.18761406,0.,1.28143114,0.,0.,-0.00000464,0.,0.,-1.28142649,0.
 ,0.,1.28143114,0.,0.,-0.00000464,0.,0.,-1.28142649\\1.45289564,0.,0.,-
 0.00003815,0.,0.,-1.45285749,0.,0.\\\@
 The archive entry for this job was punched.


 IF I AM NOT FOR MYSELF, WHO WILL BE?
 BUT IF I AM ONLY FOR MYSELF, WHAT AM I?
 THOUGH A SEEKER SINCE MY BIRTH,
 HERE IS ALL I'VE LEARNED ON EARTH,
 THIS IS THE GIST OF WHAT I KNOW:
 GIVE ADVICE AND BUY A FOE.

 PRESSED FOR RULES AND VERITIES,
 ALL I RECOLLECT ARE THESE:
 FEED A COLD TO STARVE A FEVER,
 ARGUE WITH NO TRUE-BELIEVER.
 THINK-TOO-LONG IS NEVER-ACT,
 SCRATCH A MYTH AND FIND A FACT.

 STITCH IN TIME SAVES TWENTY STITCHES,
 GIVE THE RICH TO PLEASE THEM, RICHES.
 GIVE TO LOVE YOU HEARTH AND HALL,
 BUT DO NOT GIVE ADVICE AT ALL.

                                  -- HILLEL
 Job cpu time:       0 days  0 hours  0 minutes 12.5 seconds.
 Elapsed time:       0 days  0 hours  0 minutes  1.8 seconds.
 File lengths (MBytes):  RWF=      6 Int=      0 D2E=      0 Chk=      1 Scr=      1
 Normal termination of Gaussian 16 at Fri Aug 22 15:42:50 2025.
