 Entering Gaussian System, Link 0=g16
 Initial command:
 /home/garyx/gaussian/g16/l1.exe "/tmp/gaussian_scratch/Gau-660718.inp" -scrdir="/tmp/gaussian_scratch/"
 Entering Link 1 = /home/garyx/gaussian/g16/l1.exe PID=    660720.
  
 Copyright (c) 1988-2019, Gaussian, Inc.  All Rights Reserved.
  
 This is part of the Gaussian(R) 16 program.  It is based on
 the Gaussian(R) 09 system (copyright 2009, Gaussian, Inc.),
 the Gaussian(R) 03 system (copyright 2003, Gaussian, Inc.),
 the Gaussian(R) 98 system (copyright 1998, Gaussian, Inc.),
 the Gaussian(R) 94 system (copyright 1995, Gaussian, Inc.),
 the Gaussian 92(TM) system (copyright 1992, Gaussian, Inc.),
 the Gaussian 90(TM) system (copyright 1990, Gaussian, Inc.),
 the Gaussian 88(TM) system (copyright 1988, Gaussian, Inc.),
 the Gaussian 86(TM) system (copyright 1986, Carnegie Mellon
 University), and the Gaussian 82(TM) system (copyright 1983,
 Carnegie Mellon University). Gaussian is a federally registered
 trademark of Gaussian, Inc.
  
 This software contains proprietary and confidential information,
 including trade secrets, belonging to Gaussian, Inc.
  
 This software is provided under written license and may be
 used, copied, transmitted, or stored only in accord with that
 written license.
  
 The following legend is applicable only to US Government
 contracts under FAR:
  
                    RESTRICTED RIGHTS LEGEND
  
 Use, reproduction and disclosure by the US Government is
 subject to restrictions as set forth in subparagraphs (a)
 and (c) of the Commercial Computer Software - Restricted
 Rights clause in FAR 52.227-19.
  
 Gaussian, Inc.
 340 Quinnipiac St., Bldg. 40, Wallingford CT 06492
  
  
 ---------------------------------------------------------------
 Warning -- This program may not be used in any manner that
 competes with the business of Gaussian, Inc. or will provide
 assistance to any competitor of Gaussian, Inc.  The licensee
 of this program is prohibited from giving any competitor of
 Gaussian, Inc. access to this program.  By using this program,
 the user acknowledges that Gaussian, Inc. is engaged in the
 business of creating and licensing software in the field of
 computational chemistry and represents and warrants to the
 licensee that it is not a competitor of Gaussian, Inc. and that
 it will not use this program in any manner prohibited above.
 ---------------------------------------------------------------
  

 Cite this work as:
 Gaussian 16, Revision C.01,
 M. J. Frisch, G. W. Trucks, H. B. Schlegel, G. E. Scuseria, 
 M. A. Robb, J. R. Cheeseman, G. Scalmani, V. Barone, 
 G. A. Petersson, H. Nakatsuji, X. Li, M. Caricato, A. V. Marenich, 
 J. Bloino, B. G. Janesko, R. Gomperts, B. Mennucci, H. P. Hratchian, 
 J. V. Ortiz, A. F. Izmaylov, J. L. Sonnenberg, D. Williams-Young, 
 F. Ding, F. Lipparini, F. Egidi, J. Goings, B. Peng, A. Petrone, 
 T. Henderson, D. Ranasinghe, V. G. Zakrzewski, J. Gao, N. Rega, 
 G. Zheng, W. Liang, M. Hada, M. Ehara, K. Toyota, R. Fukuda, 
 J. Hasegawa, M. Ishida, T. Nakajima, Y. Honda, O. Kitao, H. Nakai, 
 T. Vreven, K. Throssell, J. A. Montgomery, Jr., J. E. Peralta, 
 F. Ogliaro, M. J. Bearpark, J. J. Heyd, E. N. Brothers, K. N. Kudin, 
 V. N. Staroverov, T. A. Keith, R. Kobayashi, J. Normand, 
 K. Raghavachari, A. P. Rendell, J. C. Burant, S. S. Iyengar, 
 J. Tomasi, M. Cossi, J. M. Millam, M. Klene, C. Adamo, R. Cammi, 
 J. W. Ochterski, R. L. Martin, K. Morokuma, O. Farkas, 
 J. B. Foresman, and D. J. Fox, Gaussian, Inc., Wallingford CT, 2019.
 
 ******************************************
 Gaussian 16:  ES64L-G16RevC.01  3-Jul-2019
                22-Aug-2025 
 ******************************************
 %mem=10GB
 %nprocs=8
 Will use up to    8 processors via shared memory.
 -----------------------------------------
 # sp b3lyp/6-311g** Force nosymm scf=(qc)
 -----------------------------------------
 1/10=4,30=1,38=1/1,3;
 2/12=2,15=1,17=6,18=5,40=1/2;
 3/5=4,6=6,7=101,11=2,25=1,30=1,71=2,74=-5,140=1/1,2,3;
 4//1;
 5/5=2,8=3,38=5,98=1/8;
 8/6=4,10=90,11=11/1;
 11/6=1,8=1,9=11,15=111,16=1,31=1/1,2,10;
 10/6=1,31=1/2;
 6/7=2,8=2,9=2,10=2,28=1/1;
 7/8=1,10=1,25=1,30=1/1,2,3,16;
 1/10=4,30=1/3;
 99//99;
 -------------------
 Title Card Required
 -------------------
 Symbolic Z-matrix:
 Charge =  0 Multiplicity = 2
 H                     0.        0.        0. 
 H                    -3.75      0.        0. 
 F                     2.65      0.        0. 
 

 GradGradGradGradGradGradGradGradGradGradGradGradGradGradGradGradGradGrad
 Berny optimization.
 Initialization pass.
 Trust Radius=3.00D-01 FncErr=1.00D-07 GrdErr=1.00D-07 EigMax=2.50D+02 EigMin=1.00D-04
 Number of steps in this run=      2 maximum allowed number of steps=      2.
 GradGradGradGradGradGradGradGradGradGradGradGradGradGradGradGradGradGrad

                          Input orientation:                          
 ---------------------------------------------------------------------
 Center     Atomic      Atomic             Coordinates (Angstroms)
 Number     Number       Type             X           Y           Z
 ---------------------------------------------------------------------
      1          1           0        0.000000    0.000000    0.000000
      2          1           0       -3.750000    0.000000    0.000000
      3          9           0        2.650000    0.000000    0.000000
 ---------------------------------------------------------------------
                    Distance matrix (angstroms):
                    1          2          3
     1  H    0.000000
     2  H    3.750000   0.000000
     3  F    2.650000   6.400000   0.000000
 Symmetry turned off by external request.
 Stoichiometry    FH2(2)
 Framework group  C*V[C*(HHF)]
 Deg. of freedom     2
 Full point group                 C*V     NOp   4
 Rotational constants (GHZ):           0.0000000          11.3826103          11.3826103
 Standard basis: 6-311G(d,p) (5D, 7F)
    30 basis functions,    48 primitive gaussians,    31 cartesian basis functions
     6 alpha electrons        5 beta electrons
       nuclear repulsion energy         2.6824749978 Hartrees.
 NAtoms=    3 NActive=    3 NUniq=    3 SFac= 1.00D+00 NAtFMM=   60 NAOKFM=F Big=F
 Integral buffers will be    131072 words long.
 Raffenetti 2 integral format.
 Two-electron integral symmetry is turned off.
 One-electron integrals computed using PRISM.
 NBasis=    30 RedAO= T EigKep=  8.88D-02  NBF=    30
 NBsUse=    30 1.00D-06 EigRej= -1.00D+00 NBFU=    30
 ExpMin= 1.03D-01 ExpMax= 1.14D+04 ExpMxC= 1.72D+03 IAcc=3 IRadAn=         5 AccDes= 0.00D+00
 Harris functional with IExCor=  402 and IRadAn=       5 diagonalized for initial guess.
 HarFok:  IExCor=  402 AccDes= 0.00D+00 IRadAn=         5 IDoV= 1 UseB2=F ITyADJ=14
 ICtDFT=  3500011 ScaDFX=  1.000000  1.000000  1.000000  1.000000
 FoFCou: FMM=F IPFlag=           0 FMFlag=      100000 FMFlg1=           0
         NFxFlg=           0 DoJE=T BraDBF=F KetDBF=T FulRan=T
         wScrn=  0.000000 ICntrl=       500 IOpCl=  0 I1Cent=   200000004 NGrid=           0
         NMat0=    1 NMatS0=      1 NMatT0=    0 NMatD0=    1 NMtDS0=    0 NMtDT0=    0
 Symmetry not used in FoFCou.
 Initial guess <Sx>= 0.0000 <Sy>= 0.0000 <Sz>= 0.5000 <S**2>= 0.7500 S= 0.5000
 Keep R1 and R2 ints in memory in canonical form, NReq=7127049.
 Gradient too large for Newton-Raphson -- use scaled steepest descent instead.
  Beta Gap=    -0.439 HL deriv= 3.49D-14 Rot set to   6.53D-01
     Accept linear search using points  2 and  3.
 Gradient too large for Newton-Raphson -- use scaled steepest descent instead.
 Gradient too large for Newton-Raphson -- use scaled steepest descent instead.
 Gradient too large for Newton-Raphson -- use scaled steepest descent instead.
     Accept linear search using points  1 and  2.
 Gradient too large for Newton-Raphson -- use scaled steepest descent instead.
     Minimum is close to point  3 DX=  5.14D-02 DF= -8.06D-05 DXR=  4.10D-02 DFR=  1.93D-03 which will be used.
 Gradient too large for Newton-Raphson -- use scaled steepest descent instead.
     Minimum is close to point  3 DX= -2.69D-02 DF= -5.54D-05 DXR=  7.22D-02 DFR=  5.25D-03 which will be used.
 Gradient too large for Newton-Raphson -- use scaled steepest descent instead.
     Accept linear search using points  1 and  2.
 Gradient too large for Newton-Raphson -- use scaled steepest descent instead.
     Accept linear search using points  1 and  2.
 Gradient too large for Newton-Raphson -- use scaled steepest descent instead.
     Accept linear search using points  5 and  6.
 Gradient too large for Newton-Raphson -- use scaled steepest descent instead.
     Minimum is close to point  2 DX=  2.46D-02 DF= -2.15D-05 DXR=  4.69D-02 DFR=  2.21D-03 which will be used.
 Gradient too large for Newton-Raphson -- use scaled steepest descent instead.
     Accept linear search using points  1 and  2.
     Minimum is close to point  2 DX= -5.93D-02 DF= -1.08D-05 DXR=  8.00D-02 DFR=  3.99D-03 which will be used.
 Gradient too large for Newton-Raphson -- use scaled steepest descent instead.
     Minimum is close to point  2 DX=  4.20D-02 DF= -4.48D-06 DXR=  6.54D-02 DFR=  4.29D-03 which will be used.
 Gradient too large for Newton-Raphson -- use scaled steepest descent instead.
 Gradient too large for Newton-Raphson -- use scaled steepest descent instead.
     Accept linear search using points  1 and  2.
 LinEq1:  Iter=  0 NonCon=     1 RMS=1.18D-03 Max=1.33D-02 NDo=     1
 AX will form     1 AO Fock derivatives at one time.
 LinEq1:  Iter=  1 NonCon=     1 RMS=4.68D-04 Max=5.63D-03 NDo=     1
 LinEq1:  Iter=  2 NonCon=     1 RMS=2.52D-04 Max=1.59D-03 NDo=     1
 LinEq1:  Iter=  3 NonCon=     1 RMS=1.62D-04 Max=1.63D-03 NDo=     1
 LinEq1:  Iter=  4 NonCon=     1 RMS=1.06D-05 Max=7.20D-05 NDo=     1
 LinEq1:  Iter=  5 NonCon=     1 RMS=2.24D-06 Max=2.66D-05 NDo=     1
 LinEq1:  Iter=  6 NonCon=     1 RMS=3.57D-07 Max=2.18D-06 NDo=     1
 LinEq1:  Iter=  7 NonCon=     1 RMS=3.35D-08 Max=2.32D-07 NDo=     1
 LinEq1:  Iter=  8 NonCon=     1 RMS=2.40D-09 Max=1.99D-08 NDo=     1
 LinEq1:  Iter=  9 NonCon=     0 RMS=3.23D-10 Max=2.97D-09 NDo=     1
 Linear equations converged to 1.640D-09 1.640D-08 after     9 iterations.
     Accept linear search using points  1 and  2.
 Gradient too large for Newton-Raphson -- use scaled steepest descent instead.
     Accept linear search using points  1 and  2.
 LinEq1:  Iter=  0 NonCon=     1 RMS=3.88D-04 Max=5.05D-03 NDo=     1
 LinEq1:  Iter=  1 NonCon=     1 RMS=3.73D-04 Max=4.50D-03 NDo=     1
 LinEq1:  Iter=  2 NonCon=     1 RMS=1.85D-04 Max=1.74D-03 NDo=     1
 LinEq1:  Iter=  3 NonCon=     1 RMS=1.50D-05 Max=1.54D-04 NDo=     1
 LinEq1:  Iter=  4 NonCon=     1 RMS=1.45D-06 Max=1.36D-05 NDo=     1
 LinEq1:  Iter=  5 NonCon=     1 RMS=2.39D-07 Max=1.90D-06 NDo=     1
 LinEq1:  Iter=  6 NonCon=     1 RMS=4.66D-08 Max=3.97D-07 NDo=     1
 LinEq1:  Iter=  7 NonCon=     1 RMS=1.14D-08 Max=8.85D-08 NDo=     1
 LinEq1:  Iter=  8 NonCon=     0 RMS=1.07D-09 Max=7.38D-09 NDo=     1
 Linear equations converged to 1.640D-09 1.640D-08 after     8 iterations.
     Minimum is close to point  2 DX=  5.21D-02 DF= -1.66D-07 DXR=  4.95D-02 DFR=  2.46D-03 which will be used.
 LinEq1:  Iter=  0 NonCon=     1 RMS=8.55D-05 Max=1.30D-03 NDo=     1
 LinEq1:  Iter=  1 NonCon=     1 RMS=3.63D-05 Max=2.93D-04 NDo=     1
 LinEq1:  Iter=  2 NonCon=     1 RMS=1.89D-05 Max=2.69D-04 NDo=     1
 LinEq1:  Iter=  3 NonCon=     1 RMS=4.37D-06 Max=4.56D-05 NDo=     1
 LinEq1:  Iter=  4 NonCon=     1 RMS=6.97D-07 Max=5.44D-06 NDo=     1
 LinEq1:  Iter=  5 NonCon=     1 RMS=1.03D-07 Max=9.69D-07 NDo=     1
 LinEq1:  Iter=  6 NonCon=     1 RMS=1.90D-08 Max=1.56D-07 NDo=     1
 LinEq1:  Iter=  7 NonCon=     1 RMS=2.46D-09 Max=1.70D-08 NDo=     1
 LinEq1:  Iter=  8 NonCon=     0 RMS=2.04D-10 Max=1.42D-09 NDo=     1
 Linear equations converged to 1.640D-09 1.640D-08 after     8 iterations.
     Minimum is close to point  2 DX=  1.21D-02 DF= -1.25D-10 DXR=  1.20D-02 DFR=  1.43D-04 which will be used.
 LinEq1:  Iter=  0 NonCon=     1 RMS=3.51D-07 Max=5.07D-06 NDo=     1
 LinEq1:  Iter=  1 NonCon=     1 RMS=2.15D-07 Max=2.77D-06 NDo=     1
 LinEq1:  Iter=  2 NonCon=     1 RMS=1.46D-07 Max=9.96D-07 NDo=     1
 LinEq1:  Iter=  3 NonCon=     1 RMS=2.05D-08 Max=1.83D-07 NDo=     1
 LinEq1:  Iter=  4 NonCon=     1 RMS=2.83D-09 Max=3.37D-08 NDo=     1
 LinEq1:  Iter=  5 NonCon=     1 RMS=2.73D-10 Max=2.07D-09 NDo=     1
 LinEq1:  Iter=  6 NonCon=     0 RMS=4.82D-11 Max=4.58D-10 NDo=     1
 Linear equations converged to 5.818D-11 5.818D-10 after     6 iterations.
 SCF Done:  E(UB3LYP) =  -100.764601889     a.u. after   20 cycles
            Convg  =    0.3778D-07                    80 Fock formations.
              S**2 =  1.6455                  -V/T =  2.0017
 <Sx>= 0.0000 <Sy>= 0.0000 <Sz>= 0.5000 <S**2>= 1.6455 S= 0.8768
 <L.S>=  0.00000000000    
 Annihilation of the first spin contaminant:
 S**2 before annihilation     1.6455,   after     0.7523
 DoSCS=F DFT=T ScalE2(SS,OS)=  1.000000  1.000000
 Range of M.O.s used for correlation:     1    30
 NBasis=    30 NAE=     6 NBE=     5 NFC=     0 NFV=     0
 NROrb=     30 NOA=     6 NOB=     5 NVA=    24 NVB=    25
 Symmetrizing basis deriv contribution to polar:
 IMax=3 JMax=2 DiffMx= 0.00D+00
 G2DrvN: will do     4 centers at a time, making    1 passes.
 Calling FoFCou, ICntrl=  3107 FMM=F I1Cent=   0 AccDes= 0.00D+00.
 End of G2Drv F.D. properties file   721 does not exist.
 End of G2Drv F.D. properties file   722 does not exist.
 End of G2Drv F.D. properties file   788 does not exist.
          IDoAtm=111
          Differentiating once with respect to electric field.
                with respect to dipole field.
          Differentiating once with respect to nuclear coordinates.
 Keep R1 and R2 ints in memory in canonical form, NReq=7101526.
          There are    12 degrees of freedom in the 1st order CPHF.  IDoFFX=6 NUNeed=     3.
      9 vectors produced by pass  0 Test12= 2.24D-15 8.33D-09 XBig12= 1.59D+02 1.25D+01.
 AX will form     9 AO Fock derivatives at one time.
      9 vectors produced by pass  1 Test12= 2.24D-15 8.33D-09 XBig12= 6.85D+00 9.84D-01.
      9 vectors produced by pass  2 Test12= 2.24D-15 8.33D-09 XBig12= 8.36D-01 6.05D-01.
      7 vectors produced by pass  3 Test12= 2.24D-15 8.33D-09 XBig12= 2.55D-03 1.74D-02.
      6 vectors produced by pass  4 Test12= 2.24D-15 8.33D-09 XBig12= 2.33D-05 1.62D-03.
      4 vectors produced by pass  5 Test12= 2.24D-15 8.33D-09 XBig12= 7.46D-08 7.93D-05.
      1 vectors produced by pass  6 Test12= 2.24D-15 8.33D-09 XBig12= 1.42D-10 7.30D-06.
      1 vectors produced by pass  7 Test12= 2.24D-15 8.33D-09 XBig12= 1.33D-13 1.69D-07.
 InvSVY:  IOpt=1 It=  1 EMax= 1.26D-15
 Solved reduced A of dimension    46 with     9 vectors.
 Isotropic polarizability for W=    0.000000       11.73 Bohr**3.
 End of Minotr F.D. properties file   721 does not exist.
 End of Minotr F.D. properties file   722 does not exist.
 End of Minotr F.D. properties file   788 does not exist.

 **********************************************************************

            Population analysis using the SCF Density.

 **********************************************************************

 Alpha  occ. eigenvalues --  -24.72556  -1.18723  -0.51668  -0.43395  -0.43395
 Alpha  occ. eigenvalues --   -0.32696
 Alpha virt. eigenvalues --   -0.09353   0.23595   0.35703   0.89909   0.93168
 Alpha virt. eigenvalues --    0.93168   1.05778   1.24806   1.24806   1.24863
 Alpha virt. eigenvalues --    1.41824   1.41824   1.44133   2.14321   2.38599
 Alpha virt. eigenvalues --    3.68756   3.70735   3.70735   3.77302   3.77303
 Alpha virt. eigenvalues --    5.91300   5.96767   5.96767  66.50762
  Beta  occ. eigenvalues --  -24.69643  -1.10411  -0.40487  -0.40487  -0.34780
  Beta virt. eigenvalues --   -0.23861  -0.06295   0.23824   0.38074   0.94580
  Beta virt. eigenvalues --    0.94580   0.97407   1.08641   1.22560   1.22560
  Beta virt. eigenvalues --    1.26296   1.46215   1.46434   1.46434   2.13269
  Beta virt. eigenvalues --    2.42215   3.78810   3.78811   3.79789   3.79789
  Beta virt. eigenvalues --    3.81567   5.99237   5.99237   6.04298  66.53653
          Condensed to atoms (all electrons):
               1          2          3
     1  H    0.915341   0.000818   0.013522
     2  H    0.000818   0.998796  -0.000000
     3  F    0.013522  -0.000000   9.057184
          Atomic-Atomic Spin Densities.
               1          2          3
     1  H   -0.912509   0.000245  -0.008007
     2  H    0.000245   0.998646  -0.000000
     3  F   -0.008007  -0.000000   0.929387
 Mulliken charges and spin densities:
               1          2
     1  H    0.070319  -0.920271
     2  H    0.000387   0.998892
     3  F   -0.070706   0.921380
 Sum of Mulliken charges =  -0.00000   1.00000
 Mulliken charges and spin densities with hydrogens summed into heavy atoms:
               1          2
     3  F   -0.000000   1.000000
 APT charges:
               1
     1  H   -0.036109
     2  H   -0.000467
     3  F    0.036576
 Sum of APT charges =  -0.00000
 APT charges with hydrogens summed into heavy atoms:
               1
     3  F   -0.000000
 Electronic spatial extent (au):  <R**2>=            293.9220
 Charge=             -0.0000 electrons
 Dipole moment (field-independent basis, Debye):
    X=             -0.9643    Y=             -0.0000    Z=             -0.0000  Tot=              0.9643
 Quadrupole moment (field-independent basis, Debye-Ang):
   XX=             -9.0484   YY=             -7.5836   ZZ=             -7.5836
   XY=             -0.0000   XZ=             -0.0000   YZ=              0.0000
 Traceless Quadrupole moment (field-independent basis, Debye-Ang):
   XX=             -0.9766   YY=              0.4883   ZZ=              0.4883
   XY=             -0.0000   XZ=             -0.0000   YZ=              0.0000
 Octapole moment (field-independent basis, Debye-Ang**2):
  XXX=            -23.3317  YYY=              0.0000  ZZZ=              0.0000  XYY=             -7.8329
  XXY=              0.0000  XXZ=              0.0000  XZZ=             -7.8329  YZZ=              0.0000
  YYZ=              0.0000  XYZ=              0.0000
 Hexadecapole moment (field-independent basis, Debye-Ang**3):
 XXXX=           -310.0158 YYYY=             -6.2216 ZZZZ=             -6.2216 XXXY=              0.0000
 XXXZ=              0.0000 YYYX=              0.0000 YYYZ=              0.0000 ZZZX=              0.0000
 ZZZY=              0.0000 XXYY=            -56.0336 XXZZ=            -56.0336 YYZZ=             -2.0739
 XXYZ=              0.0000 YYXZ=              0.0000 ZZXY=              0.0000
 N-N= 2.682474997761D+00 E-N=-2.465176895855D+02  KE= 1.005929306945D+02
  Exact polarizability:      31.134       0.000       2.025       0.000      -0.000       2.025
 Approx polarizability:      37.542       0.000       1.922       0.000      -0.000       1.922
                          Isotropic Fermi Contact Couplings
        Atom                 a.u.       MegaHertz       Gauss      10(-4) cm-1
     1  H(1)              -0.27687   -1237.59410    -441.60435    -412.81696
     2  H(1)               0.29668    1326.13064     473.19639     442.34957
     3  F(19)              0.02095      88.15305      31.45520      29.40469
 --------------------------------------------------------
       Center         ----  Spin Dipole Couplings  ----
                      3XX-RR        3YY-RR        3ZZ-RR
 --------------------------------------------------------
     1   Atom        0.021177     -0.010589     -0.010589
     2   Atom       -0.004046      0.002023      0.002023
     3   Atom        5.830861     -2.915431     -2.915431
 --------------------------------------------------------
                        XY            XZ            YZ
 --------------------------------------------------------
     1   Atom       -0.000000     -0.000000      0.000000
     2   Atom        0.000000      0.000000      0.000000
     3   Atom        0.000000      0.000000     -0.000000
 --------------------------------------------------------


 ---------------------------------------------------------------------------------
              Anisotropic Spin Dipole Couplings in Principal Axis System
 ---------------------------------------------------------------------------------

       Atom             a.u.   MegaHertz   Gauss  10(-4) cm-1        Axes

              Baa    -0.0106    -5.650    -2.016    -1.885  0.0000 -0.2612  0.9653
     1 H(1)   Bbb    -0.0106    -5.650    -2.016    -1.885  0.0000  0.9653  0.2612
              Bcc     0.0212    11.299     4.032     3.769  1.0000 -0.0000 -0.0000
 
              Baa    -0.0040    -2.159    -0.770    -0.720  1.0000 -0.0000 -0.0000
     2 H(1)   Bbb     0.0020     1.079     0.385     0.360  0.0000 -0.2622  0.9650
              Bcc     0.0020     1.079     0.385     0.360  0.0000  0.9650  0.2622
 
              Baa    -2.9154 -1464.204  -522.464  -488.406 -0.0000  0.9650  0.2623
     3 F(19)  Bbb    -2.9154 -1464.204  -522.464  -488.406  0.0000 -0.2623  0.9650
              Bcc     5.8309  2928.408  1044.929   976.812  1.0000  0.0000  0.0000
 

 ---------------------------------------------------------------------------------

 Calling FoFJK, ICntrl=    100127 FMM=F ISym2X=0 I1Cent= 0 IOpClX= 1 NMat=1 NMatS=1 NMatT=0.
 Full mass-weighted force constant matrix:
 Low frequencies --- -525.0455  -91.3038   -0.0013   -0.0006    0.0024   31.1103
 Low frequencies ---   31.1103  212.7631  212.7631
 ******    2 imaginary frequencies (negative Signs) ****** 
 Diagonal vibrational polarizability:
        6.9592157       3.2812712       3.2812712
 Harmonic frequencies (cm**-1), IR intensities (KM/Mole), Raman scattering
 activities (A**4/AMU), depolarization ratios for plane and unpolarized
 incident light, reduced masses (AMU), force constants (mDyne/A),
 and normal coordinates:
                      1                      2                      3
                      A                      A                      A
 Frequencies --   -525.0455               -91.3038               198.0482
 Red. masses --      1.0551                 1.0565                 1.0227
 Frc consts  --      0.1714                 0.0052                 0.0236
 IR Inten    --     67.4640                 0.1157                 4.7825
  Atom  AN      X      Y      Z        X      Y      Z        X      Y      Z
     1   1     1.00   0.00   0.00    -0.02   0.00   0.00    -0.00  -0.36   0.85
     2   1    -0.03  -0.00  -0.00     1.00  -0.00  -0.00     0.00   0.15  -0.35
     3   9    -0.05  -0.00  -0.00    -0.05  -0.00  -0.00     0.00   0.01  -0.03
                      4
                      A
 Frequencies --    198.0482
 Red. masses --      1.0227
 Frc consts  --      0.0236
 IR Inten    --      4.7825
  Atom  AN      X      Y      Z
     1   1    -0.00   0.85   0.36
     2   1    -0.00  -0.35  -0.15
     3   9     0.00  -0.03  -0.01

 -------------------
 - Thermochemistry -
 -------------------
 Temperature   298.150 Kelvin.  Pressure   1.00000 Atm.
 Atom     1 has atomic number  1 and mass   1.00783
 Atom     2 has atomic number  1 and mass   1.00783
 Atom     3 has atomic number  9 and mass  18.99840
 Molecular mass:    21.01405 amu.
 Principal axes and moments of inertia in atomic units:
                           1         2         3
     Eigenvalues --     0.00000 158.55249 158.55249
           X            1.00000  -0.00000   0.00000
           Y            0.00000   1.00000   0.00000
           Z            0.00000   0.00000   1.00000
 This molecule is a prolate symmetric top.
 Rotational symmetry number  1.
 Rotational temperature (Kelvin)      0.54628
 Rotational constant (GHZ):          11.382610
    2 imaginary frequencies ignored.
 Zero-point vibrational energy       2369.2 (Joules/Mol)
                                    0.56625 (Kcal/Mol)
 Warning -- explicit consideration of   2 degrees of freedom as
           vibrations may cause significant error
 Vibrational temperatures:    284.95   284.95
          (Kelvin)
 
 Zero-point correction=                           0.000902 (Hartree/Particle)
 Thermal correction to Energy=                    0.004390
 Thermal correction to Enthalpy=                  0.005335
 Thermal correction to Gibbs Free Energy=        -0.020921
 Sum of electronic and zero-point Energies=           -100.763700
 Sum of electronic and thermal Energies=              -100.760211
 Sum of electronic and thermal Enthalpies=            -100.759267
 Sum of electronic and thermal Free Energies=         -100.785522
 
                     E (Thermal)             CV                S
                      KCal/Mol        Cal/Mol-Kelvin    Cal/Mol-Kelvin
 Total                    2.755              8.653             55.259
 Electronic               0.000              0.000              1.377
 Translational            0.889              2.981             35.068
 Rotational               0.592              1.987             14.511
 Vibrational              1.274              3.685              4.302
 Vibration     1          0.637              1.843              2.151
 Vibration     2          0.637              1.843              2.151
                       Q            Log10(Q)             Ln(Q)
 Total Bot       0.419566D+10          9.622801         22.157317
 Total V=0       0.109110D+11         10.037864         23.113035
 Vib (Bot)       0.101515D+01          0.006532          0.015040
 Vib (Bot)    1  0.100755D+01          0.003266          0.007520
 Vib (Bot)    2  0.100755D+01          0.003266          0.007520
 Vib (V=0)       0.263994D+01          0.421595          0.970758
 Vib (V=0)    1  0.162479D+01          0.210797          0.485379
 Vib (V=0)    2  0.162479D+01          0.210797          0.485379
 Electronic      0.200000D+01          0.301030          0.693147
 Translational   0.378633D+07          6.578219         15.146908
 Rotational      0.545783D+03          2.737020          6.302222
 -------------------------------------------------------------------
 Center     Atomic                   Forces (Hartrees/Bohr)
 Number     Number              X              Y              Z
 -------------------------------------------------------------------
      1        1           0.007866207   -0.000000000   -0.000000000
      2        1           0.000254225    0.000000000    0.000000000
      3        9          -0.008120431    0.000000000    0.000000000
 -------------------------------------------------------------------
 Cartesian Forces:  Max     0.008120431 RMS     0.003769516

 GradGradGradGradGradGradGradGradGradGradGradGradGradGradGradGradGradGrad
 Berny optimization.
 Search for a local minimum.
 Step number   1 out of a maximum of    2
 All quantities printed in internal units (Hartrees-Bohrs-Radians)
 Second derivative matrix not updated -- analytic derivatives used.
 The second derivative matrix:
                          X1        Y1        Z1        X2        Y2
           X1          -0.01001
           Y1          -0.00000   0.00164
           Z1          -0.00000   0.00000   0.00164
           X2           0.00033  -0.00000  -0.00000  -0.00031
           Y2           0.00000  -0.00004   0.00000  -0.00000   0.00004
           Z2           0.00000   0.00000  -0.00004   0.00000  -0.00000
           X3           0.00968   0.00000   0.00000  -0.00002  -0.00000
           Y3           0.00000  -0.00161  -0.00000   0.00000   0.00000
           Z3           0.00000  -0.00000  -0.00161   0.00000  -0.00000
                          Z2        X3        Y3        Z3
           Z2           0.00004
           X3          -0.00000  -0.00966
           Y3          -0.00000  -0.00000   0.00161
           Z3           0.00000  -0.00000   0.00000   0.00161
 ITU=  0
     Eigenvalues ---   -0.01604  -0.00043   0.00196   0.00196
 Eigenvalue     1 is  -1.60D-02 should be greater than     0.000000 Eigenvector:
                          X1        X3        X2        Y1        Z1
   1                    0.92839  -0.35056   0.12329   0.00000   0.00000
                          Y2        Z2        Y3        Z3
   1                   -0.00000  -0.00000  -0.00000  -0.00000
 Eigenvalue     2 is  -4.28D-04 should be greater than     0.000000 Eigenvector:
                          X2        X3        X1        Y1        Y2
   1                    0.94546  -0.24274  -0.21722   0.00000  -0.00000
                          Z1        Y3        Z2        Z3
   1                    0.00000  -0.00000  -0.00000  -0.00000
 Quadratic step=1.335D+00 exceeds max=3.000D-01 adjusted using Lamda=-1.804D-02.
 Angle between NR and scaled steps=  56.40 degrees.
 Angle between quadratic step and forces=  25.76 degrees.
 Linear search not attempted -- first point.
 B after Tr=    -0.074233    0.000000   -0.000000
         Rot=    0.907362    0.420350   -0.000000   -0.000000 Ang=  49.71 deg.
 Variable       Old X    -DE/DX   Delta X   Delta X   Delta X     New X
                                 (Linear)    (Quad)   (Total)
    X1        0.00000   0.00787   0.00000   0.27146   0.19723   0.19723
    Y1        0.00000  -0.00000   0.00000  -0.00000  -0.00000  -0.00000
    Z1        0.00000  -0.00000   0.00000  -0.00000   0.00000   0.00000
    X2       -7.08647   0.00025   0.00000   0.06259  -0.01165  -7.09812
    Y2        0.00000   0.00000   0.00000   0.00000   0.00000   0.00000
    Z2        0.00000   0.00000   0.00000   0.00000  -0.00000  -0.00000
    X3        5.00777  -0.00812   0.00000  -0.11135  -0.18558   4.82219
    Y3        0.00000   0.00000   0.00000   0.00000   0.00000   0.00000
    Z3        0.00000   0.00000   0.00000   0.00000  -0.00000  -0.00000
         Item               Value     Threshold  Converged?
 Maximum Force            0.008120     0.000450     NO 
 RMS     Force            0.003770     0.000300     NO 
 Maximum Displacement     0.197231     0.001800     NO 
 RMS     Displacement     0.090355     0.001200     NO 
 Predicted change in Energy=-3.771615D-03
 GradGradGradGradGradGradGradGradGradGradGradGradGradGradGradGradGradGrad


 ----------------------------------------------------------------------

 Electric dipole moment (input orientation):
 (Debye = 10**-18 statcoulomb cm , SI units = C m)
                  (au)            (Debye)         (10**-30 SI)
   Tot        0.379392D+00      0.964318D+00      0.321662D+01
   x         -0.379392D+00     -0.964318D+00     -0.321662D+01
   y          0.000000D+00      0.000000D+00      0.000000D+00
   z          0.000000D+00      0.000000D+00      0.000000D+00

 Dipole polarizability, Alpha (input orientation).
 (esu units = cm**3 , SI units = C**2 m**2 J**-1)
 Alpha(0;0):
               (au)            (10**-24 esu)      (10**-40 SI)
   iso        0.117279D+02      0.173789D+01      0.193367D+01
   aniso      0.291098D+02      0.431362D+01      0.479955D+01
   xx         0.311344D+02      0.461364D+01      0.513337D+01
   yx         0.000000D+00      0.000000D+00      0.000000D+00
   yy         0.202462D+01      0.300018D+00      0.333815D+00
   zx         0.000000D+00      0.000000D+00      0.000000D+00
   zy         0.000000D+00      0.000000D+00      0.000000D+00
   zz         0.202462D+01      0.300018D+00      0.333815D+00

 ----------------------------------------------------------------------

 Dipole orientation:
     1          0.00000000          0.00000000         -0.00000000
     1          0.00000000          0.00000001          7.08647297
     9         -0.00000000         -0.00000000         -5.00777423

 Electric dipole moment (dipole orientation):
 (Debye = 10**-18 statcoulomb cm , SI units = C m)
                  (au)            (Debye)         (10**-30 SI)
   Tot        0.379392D+00      0.964318D+00      0.321662D+01
   x          0.000000D+00      0.000000D+00      0.000000D+00
   y          0.000000D+00      0.000000D+00      0.000000D+00
   z          0.379392D+00      0.964318D+00      0.321662D+01

 Dipole polarizability, Alpha (dipole orientation).
 (esu units = cm**3 , SI units = C**2 m**2 J**-1)
 Alpha(0;0):
               (au)            (10**-24 esu)      (10**-40 SI)
   iso        0.117279D+02      0.173789D+01      0.193367D+01
   aniso      0.291098D+02      0.431362D+01      0.479955D+01
   xx         0.202462D+01      0.300018D+00      0.333815D+00
   yx         0.000000D+00      0.000000D+00      0.000000D+00
   yy         0.202462D+01      0.300018D+00      0.333815D+00
   zx         0.000000D+00      0.000000D+00      0.000000D+00
   zy         0.000000D+00      0.000000D+00      0.000000D+00
   zz         0.311344D+02      0.461364D+01      0.513337D+01

 ----------------------------------------------------------------------
 Unable to Open any file for archive entry.
 1\1\GINC-DESKTOP-B3RIHJD\Freq\UB3LYP\6-311G(d,p)\F1H2(2)\GARYX\22-Aug-
 2025\0\\# sp b3lyp/6-311g** Force nosymm scf=(qc)\\Title Card Required
 \\0,2\H,0.,0.,0.\H,-3.75,0.,0.\F,2.65,0.,0.\\Version=ES64L-G16RevC.01\
 HF=-100.7646019\S2=1.645549\S2-1=0.\S2A=0.752259\RMSD=2.304e-09\RMSF=3
 .770e-03\Thermal=0.0043904\ETot=-100.7602115\HTot=-100.7592673\GTot=-1
 00.7855225\Dipole=-0.379392,0.,0.\DipoleDeriv=-0.2574439,0.,0.,0.,0.07
 45579,0.,0.,0.,0.0745579,-0.0023545,0.,0.,0.,0.0004769,0.,0.,0.,0.0004
 769,0.2597984,0.,0.,0.,-0.0750348,0.,0.,0.,-0.0750348\Polar=31.1343938
 ,0.,2.0246243,0.,0.,2.0246243\Quadrupole=-0.7260429,0.3630215,0.363021
 5,0.,0.,0.\PG=C*V [C*(H1H1F1)]\NImag=2\\-0.01000662,0.,0.00164234,0.,0
 .,0.00164234,0.00032822,0.,0.,-0.00031279,0.,-0.00003595,0.,0.,0.00003
 587,0.,0.,-0.00003595,0.,0.,0.00003587,0.00967840,0.,0.,-0.00001543,0.
 ,0.,-0.00966297,0.,-0.00160639,0.,0.,0.00000008,0.,0.,0.00160631,0.,0.
 ,-0.00160639,0.,0.,0.00000008,0.,0.,0.00160631\\-0.00786621,0.,0.,-0.0
 0025422,0.,0.,0.00812043,0.,0.\\\@
 The archive entry for this job was punched.


 FORGIVE MY NONSENSE AS I ALSO FORGIVE THOSE WHO THINK THEY TALK SENSE

                                                       -- ROBERT FROST
 Job cpu time:       0 days  0 hours  0 minutes 19.4 seconds.
 Elapsed time:       0 days  0 hours  0 minutes  2.7 seconds.
 File lengths (MBytes):  RWF=      6 Int=      0 D2E=      0 Chk=      1 Scr=      1
 Normal termination of Gaussian 16 at Fri Aug 22 18:16:05 2025.
