 Entering Gaussian System, Link 0=g16
 Initial command:
 /home/garyx/gaussian/g16/l1.exe "/tmp/gaussian_scratch/Gau-1134286.inp" -scrdir="/tmp/gaussian_scratch/"
 Entering Link 1 = /home/garyx/gaussian/g16/l1.exe PID=   1134288.
  
 Copyright (c) 1988-2019, Gaussian, Inc.  All Rights Reserved.
  
 This is part of the Gaussian(R) 16 program.  It is based on
 the Gaussian(R) 09 system (copyright 2009, Gaussian, Inc.),
 the Gaussian(R) 03 system (copyright 2003, Gaussian, Inc.),
 the Gaussian(R) 98 system (copyright 1998, Gaussian, Inc.),
 the Gaussian(R) 94 system (copyright 1995, Gaussian, Inc.),
 the Gaussian 92(TM) system (copyright 1992, Gaussian, Inc.),
 the Gaussian 90(TM) system (copyright 1990, Gaussian, Inc.),
 the Gaussian 88(TM) system (copyright 1988, Gaussian, Inc.),
 the Gaussian 86(TM) system (copyright 1986, Carnegie Mellon
 University), and the Gaussian 82(TM) system (copyright 1983,
 Carnegie Mellon University). Gaussian is a federally registered
 trademark of Gaussian, Inc.
  
 This software contains proprietary and confidential information,
 including trade secrets, belonging to Gaussian, Inc.
  
 This software is provided under written license and may be
 used, copied, transmitted, or stored only in accord with that
 written license.
  
 The following legend is applicable only to US Government
 contracts under FAR:
  
                    RESTRICTED RIGHTS LEGEND
  
 Use, reproduction and disclosure by the US Government is
 subject to restrictions as set forth in subparagraphs (a)
 and (c) of the Commercial Computer Software - Restricted
 Rights clause in FAR 52.227-19.
  
 Gaussian, Inc.
 340 Quinnipiac St., Bldg. 40, Wallingford CT 06492
  
  
 ---------------------------------------------------------------
 Warning -- This program may not be used in any manner that
 competes with the business of Gaussian, Inc. or will provide
 assistance to any competitor of Gaussian, Inc.  The licensee
 of this program is prohibited from giving any competitor of
 Gaussian, Inc. access to this program.  By using this program,
 the user acknowledges that Gaussian, Inc. is engaged in the
 business of creating and licensing software in the field of
 computational chemistry and represents and warrants to the
 licensee that it is not a competitor of Gaussian, Inc. and that
 it will not use this program in any manner prohibited above.
 ---------------------------------------------------------------
  

 Cite this work as:
 Gaussian 16, Revision C.01,
 M. J. Frisch, G. W. Trucks, H. B. Schlegel, G. E. Scuseria, 
 M. A. Robb, J. R. Cheeseman, G. Scalmani, V. Barone, 
 G. A. Petersson, H. Nakatsuji, X. Li, M. Caricato, A. V. Marenich, 
 J. Bloino, B. G. Janesko, R. Gomperts, B. Mennucci, H. P. Hratchian, 
 J. V. Ortiz, A. F. Izmaylov, J. L. Sonnenberg, D. Williams-Young, 
 F. Ding, F. Lipparini, F. Egidi, J. Goings, B. Peng, A. Petrone, 
 T. Henderson, D. Ranasinghe, V. G. Zakrzewski, J. Gao, N. Rega, 
 G. Zheng, W. Liang, M. Hada, M. Ehara, K. Toyota, R. Fukuda, 
 J. Hasegawa, M. Ishida, T. Nakajima, Y. Honda, O. Kitao, H. Nakai, 
 T. Vreven, K. Throssell, J. A. Montgomery, Jr., J. E. Peralta, 
 F. Ogliaro, M. J. Bearpark, J. J. Heyd, E. N. Brothers, K. N. Kudin, 
 V. N. Staroverov, T. A. Keith, R. Kobayashi, J. Normand, 
 K. Raghavachari, A. P. Rendell, J. C. Burant, S. S. Iyengar, 
 J. Tomasi, M. Cossi, J. M. Millam, M. Klene, C. Adamo, R. Cammi, 
 J. W. Ochterski, R. L. Martin, K. Morokuma, O. Farkas, 
 J. B. Foresman, and D. J. Fox, Gaussian, Inc., Wallingford CT, 2019.
 
 ******************************************
 Gaussian 16:  ES64L-G16RevC.01  3-Jul-2019
                23-Aug-2025 
 ******************************************
 %mem=10GB
 %nprocs=8
 Will use up to    8 processors via shared memory.
 -----------------------------------------
 # sp b3lyp/6-311g** Force nosymm scf=(qc)
 -----------------------------------------
 1/10=4,30=1,38=1/1,3;
 2/12=2,15=1,17=6,18=5,40=1/2;
 3/5=4,6=6,7=101,11=2,25=1,30=1,71=2,74=-5,140=1/1,2,3;
 4//1;
 5/5=2,8=3,38=5,98=1/8;
 8/6=4,10=90,11=11/1;
 11/6=1,8=1,9=11,15=111,16=1,31=1/1,2,10;
 10/6=1,31=1/2;
 6/7=2,8=2,9=2,10=2,28=1/1;
 7/8=1,10=1,25=1,30=1/1,2,3,16;
 1/10=4,30=1/3;
 99//99;
 -------------------
 Title Card Required
 -------------------
 Symbolic Z-matrix:
 Charge =  0 Multiplicity = 2
 H                     0.        0.        0. 
 H                    -1.85      0.        0. 
 F                     3.85      0.        0. 
 

 GradGradGradGradGradGradGradGradGradGradGradGradGradGradGradGradGradGrad
 Berny optimization.
 Initialization pass.
 Trust Radius=3.00D-01 FncErr=1.00D-07 GrdErr=1.00D-07 EigMax=2.50D+02 EigMin=1.00D-04
 Number of steps in this run=      2 maximum allowed number of steps=      2.
 GradGradGradGradGradGradGradGradGradGradGradGradGradGradGradGradGradGrad

                          Input orientation:                          
 ---------------------------------------------------------------------
 Center     Atomic      Atomic             Coordinates (Angstroms)
 Number     Number       Type             X           Y           Z
 ---------------------------------------------------------------------
      1          1           0        0.000000    0.000000    0.000000
      2          1           0       -1.850000    0.000000    0.000000
      3          9           0        3.850000    0.000000    0.000000
 ---------------------------------------------------------------------
                    Distance matrix (angstroms):
                    1          2          3
     1  H    0.000000
     2  H    1.850000   0.000000
     3  F    3.850000   5.700000   0.000000
 Symmetry turned off by external request.
 Stoichiometry    FH2(2)
 Framework group  C*V[C*(HHF)]
 Deg. of freedom     2
 Full point group                 C*V     NOp   4
 Rotational constants (GHZ):           0.0000000          11.6784585          11.6784585
 Standard basis: 6-311G(d,p) (5D, 7F)
    30 basis functions,    48 primitive gaussians,    31 cartesian basis functions
     6 alpha electrons        5 beta electrons
       nuclear repulsion energy         2.3586223362 Hartrees.
 NAtoms=    3 NActive=    3 NUniq=    3 SFac= 1.00D+00 NAtFMM=   60 NAOKFM=F Big=F
 Integral buffers will be    131072 words long.
 Raffenetti 2 integral format.
 Two-electron integral symmetry is turned off.
 One-electron integrals computed using PRISM.
 NBasis=    30 RedAO= T EigKep=  8.23D-02  NBF=    30
 NBsUse=    30 1.00D-06 EigRej= -1.00D+00 NBFU=    30
 ExpMin= 1.03D-01 ExpMax= 1.14D+04 ExpMxC= 1.72D+03 IAcc=3 IRadAn=         5 AccDes= 0.00D+00
 Harris functional with IExCor=  402 and IRadAn=       5 diagonalized for initial guess.
 HarFok:  IExCor=  402 AccDes= 0.00D+00 IRadAn=         5 IDoV= 1 UseB2=F ITyADJ=14
 ICtDFT=  3500011 ScaDFX=  1.000000  1.000000  1.000000  1.000000
 FoFCou: FMM=F IPFlag=           0 FMFlag=      100000 FMFlg1=           0
         NFxFlg=           0 DoJE=T BraDBF=F KetDBF=T FulRan=T
         wScrn=  0.000000 ICntrl=       500 IOpCl=  0 I1Cent=   200000004 NGrid=           0
         NMat0=    1 NMatS0=      1 NMatT0=    0 NMatD0=    1 NMtDS0=    0 NMtDT0=    0
 Symmetry not used in FoFCou.
 Initial guess <Sx>= 0.0000 <Sy>= 0.0000 <Sz>= 0.5000 <S**2>= 0.7500 S= 0.5000
 Keep R1 and R2 ints in memory in canonical form, NReq=7127049.
 Gradient too large for Newton-Raphson -- use scaled steepest descent instead.
  Beta Gap=    -0.632 HL deriv= 1.08D-16 Rot set to   3.59D-01
 Gradient too large for Newton-Raphson -- use scaled steepest descent instead.
 Gradient too large for Newton-Raphson -- use scaled steepest descent instead.
     Minimum is close to point  2 DX=  1.17D-02 DF= -4.35D-06 DXR=  1.44D-02 DFR=  2.08D-04 which will be used.
 Gradient too large for Newton-Raphson -- use scaled steepest descent instead.
 Gradient too large for Newton-Raphson -- use scaled steepest descent instead.
     Accept linear search using points  1 and  2.
 Gradient too large for Newton-Raphson -- use scaled steepest descent instead.
     Minimum is close to point  3 DX=  1.11D-02 DF= -2.99D-06 DXR=  8.48D-03 DFR=  7.13D-05 which will be used.
 Gradient too large for Newton-Raphson -- use scaled steepest descent instead.
     Minimum is close to point  2 DX= -1.78D-03 DF= -6.13D-07 DXR=  3.58D-03 DFR=  1.28D-05 which will be used.
 Gradient too large for Newton-Raphson -- use scaled steepest descent instead.
     Accept linear search using points  1 and  2.
 Gradient too large for Newton-Raphson -- use scaled steepest descent instead.
     Minimum is close to point  2 DX=  1.28D-02 DF= -1.34D-06 DXR=  2.50D-02 DFR=  6.27D-04 which will be used.
 Gradient too large for Newton-Raphson -- use scaled steepest descent instead.
     Accept linear search using points  1 and  2.
 Gradient too large for Newton-Raphson -- use scaled steepest descent instead.
 Gradient too large for Newton-Raphson -- use scaled steepest descent instead.
     Accept linear search using points  1 and  2.
 Gradient too large for Newton-Raphson -- use scaled steepest descent instead.
     Accept linear search using points  1 and  2.
 Gradient too large for Newton-Raphson -- use scaled steepest descent instead.
     Accept linear search using points  1 and  2.
 Gradient too large for Newton-Raphson -- use scaled steepest descent instead.
     Accept linear search using points  3 and  4.
 Gradient too large for Newton-Raphson -- use scaled steepest descent instead.
     Accept linear search using points  1 and  2.
 Gradient too large for Newton-Raphson -- use scaled steepest descent instead.
     Minimum is close to point  3 DX=  6.37D-02 DF= -1.27D-06 DXR=  3.61D-02 DFR=  1.31D-03 which will be used.
 Gradient too large for Newton-Raphson -- use scaled steepest descent instead.
     Accept linear search using points  1 and  2.
 LinEq1:  Iter=  0 NonCon=     1 RMS=1.07D-03 Max=1.57D-02 NDo=     1
 AX will form     1 AO Fock derivatives at one time.
 LinEq1:  Iter=  1 NonCon=     1 RMS=5.50D-04 Max=8.05D-03 NDo=     1
 LinEq1:  Iter=  2 NonCon=     1 RMS=7.02D-05 Max=7.32D-04 NDo=     1
 LinEq1:  Iter=  3 NonCon=     1 RMS=1.11D-05 Max=1.44D-04 NDo=     1
 LinEq1:  Iter=  4 NonCon=     1 RMS=1.39D-06 Max=1.20D-05 NDo=     1
 LinEq1:  Iter=  5 NonCon=     1 RMS=3.25D-07 Max=4.88D-06 NDo=     1
 LinEq1:  Iter=  6 NonCon=     1 RMS=1.58D-07 Max=1.01D-06 NDo=     1
 LinEq1:  Iter=  7 NonCon=     1 RMS=5.15D-08 Max=4.01D-07 NDo=     1
 LinEq1:  Iter=  8 NonCon=     1 RMS=2.73D-09 Max=2.06D-08 NDo=     1
 LinEq1:  Iter=  9 NonCon=     0 RMS=6.22D-10 Max=6.58D-09 NDo=     1
 Linear equations converged to 1.640D-09 1.640D-08 after     9 iterations.
     Accept linear search using points  1 and  2.
     Minimum is close to point  2 DX= -5.87D-02 DF= -6.14D-07 DXR=  6.24D-02 DFR=  4.07D-03 which will be used.
 LinEq1:  Iter=  0 NonCon=     1 RMS=7.02D-05 Max=9.89D-04 NDo=     1
 LinEq1:  Iter=  1 NonCon=     1 RMS=2.40D-05 Max=3.35D-04 NDo=     1
 LinEq1:  Iter=  2 NonCon=     1 RMS=2.80D-06 Max=2.07D-05 NDo=     1
 LinEq1:  Iter=  3 NonCon=     1 RMS=5.74D-07 Max=5.41D-06 NDo=     1
 LinEq1:  Iter=  4 NonCon=     1 RMS=2.23D-07 Max=2.06D-06 NDo=     1
 LinEq1:  Iter=  5 NonCon=     1 RMS=1.02D-07 Max=7.12D-07 NDo=     1
 LinEq1:  Iter=  6 NonCon=     1 RMS=4.67D-08 Max=4.44D-07 NDo=     1
 LinEq1:  Iter=  7 NonCon=     1 RMS=1.89D-08 Max=1.32D-07 NDo=     1
 LinEq1:  Iter=  8 NonCon=     1 RMS=1.75D-09 Max=1.28D-08 NDo=     1
 LinEq1:  Iter=  9 NonCon=     0 RMS=2.41D-10 Max=1.09D-09 NDo=     1
 Linear equations converged to 1.640D-09 1.640D-08 after     9 iterations.
     Minimum is close to point  2 DX=  4.24D-03 DF= -1.27D-11 DXR=  4.22D-03 DFR=  1.78D-05 which will be used.
 LinEq1:  Iter=  0 NonCon=     1 RMS=1.02D-06 Max=4.46D-06 NDo=     1
 LinEq1:  Iter=  1 NonCon=     1 RMS=2.74D-07 Max=2.44D-06 NDo=     1
 LinEq1:  Iter=  2 NonCon=     1 RMS=7.09D-08 Max=8.78D-07 NDo=     1
 LinEq1:  Iter=  3 NonCon=     1 RMS=2.65D-08 Max=2.29D-07 NDo=     1
 LinEq1:  Iter=  4 NonCon=     1 RMS=1.64D-08 Max=1.97D-07 NDo=     1
 LinEq1:  Iter=  5 NonCon=     1 RMS=6.27D-09 Max=4.16D-08 NDo=     1
 LinEq1:  Iter=  6 NonCon=     1 RMS=2.44D-09 Max=2.08D-08 NDo=     1
 LinEq1:  Iter=  7 NonCon=     1 RMS=8.87D-10 Max=6.95D-09 NDo=     1
 LinEq1:  Iter=  8 NonCon=     0 RMS=2.51D-10 Max=1.79D-09 NDo=     1
 Linear equations converged to 5.652D-10 5.652D-09 after     8 iterations.
 LinEq1:  Iter=  0 NonCon=     1 RMS=1.05D-06 Max=5.18D-06 NDo=     1
 LinEq1:  Iter=  1 NonCon=     1 RMS=3.28D-07 Max=2.37D-06 NDo=     1
 LinEq1:  Iter=  2 NonCon=     1 RMS=1.29D-07 Max=1.09D-06 NDo=     1
 LinEq1:  Iter=  3 NonCon=     1 RMS=7.17D-08 Max=4.74D-07 NDo=     1
 LinEq1:  Iter=  4 NonCon=     1 RMS=3.35D-08 Max=3.52D-07 NDo=     1
 LinEq1:  Iter=  5 NonCon=     1 RMS=1.71D-08 Max=1.77D-07 NDo=     1
 LinEq1:  Iter=  6 NonCon=     1 RMS=8.62D-09 Max=9.77D-08 NDo=     1
 LinEq1:  Iter=  7 NonCon=     1 RMS=2.78D-09 Max=2.00D-08 NDo=     1
 LinEq1:  Iter=  8 NonCon=     1 RMS=7.50D-10 Max=7.07D-09 NDo=     1
 LinEq1:  Iter=  9 NonCon=     0 RMS=7.23D-11 Max=4.63D-10 NDo=     1
 Linear equations converged to 5.755D-10 5.755D-09 after     9 iterations.
 LinEq1:  Iter=  0 NonCon=     1 RMS=1.19D-06 Max=6.84D-06 NDo=     1
 LinEq1:  Iter=  1 NonCon=     1 RMS=2.74D-07 Max=2.33D-06 NDo=     1
 LinEq1:  Iter=  2 NonCon=     1 RMS=1.08D-07 Max=7.99D-07 NDo=     1
 LinEq1:  Iter=  3 NonCon=     1 RMS=6.00D-08 Max=3.88D-07 NDo=     1
 LinEq1:  Iter=  4 NonCon=     1 RMS=2.86D-08 Max=3.31D-07 NDo=     1
 LinEq1:  Iter=  5 NonCon=     1 RMS=1.33D-08 Max=1.29D-07 NDo=     1
 LinEq1:  Iter=  6 NonCon=     1 RMS=6.21D-09 Max=7.69D-08 NDo=     1
 LinEq1:  Iter=  7 NonCon=     1 RMS=2.58D-09 Max=2.45D-08 NDo=     1
 LinEq1:  Iter=  8 NonCon=     1 RMS=6.58D-10 Max=3.90D-09 NDo=     1
 LinEq1:  Iter=  9 NonCon=     0 RMS=5.99D-11 Max=6.19D-10 NDo=     1
 Linear equations converged to 5.826D-10 5.826D-09 after     9 iterations.
 LinEq1:  Iter=  0 NonCon=     1 RMS=1.94D-06 Max=1.93D-05 NDo=     1
 LinEq1:  Iter=  1 NonCon=     1 RMS=4.33D-07 Max=3.66D-06 NDo=     1
 LinEq1:  Iter=  2 NonCon=     1 RMS=1.48D-07 Max=1.14D-06 NDo=     1
 LinEq1:  Iter=  3 NonCon=     1 RMS=3.85D-08 Max=3.18D-07 NDo=     1
 LinEq1:  Iter=  4 NonCon=     1 RMS=2.36D-08 Max=2.74D-07 NDo=     1
 LinEq1:  Iter=  5 NonCon=     1 RMS=1.32D-08 Max=8.52D-08 NDo=     1
 LinEq1:  Iter=  6 NonCon=     1 RMS=6.55D-09 Max=4.39D-08 NDo=     1
 LinEq1:  Iter=  7 NonCon=     1 RMS=1.59D-09 Max=1.17D-08 NDo=     1
 LinEq1:  Iter=  8 NonCon=     0 RMS=4.12D-10 Max=2.83D-09 NDo=     1
 Linear equations converged to 7.785D-10 7.785D-09 after     8 iterations.
 LinEq1:  Iter=  0 NonCon=     1 RMS=5.90D-07 Max=4.06D-06 NDo=     1
 LinEq1:  Iter=  1 NonCon=     1 RMS=2.26D-07 Max=2.31D-06 NDo=     1
 LinEq1:  Iter=  2 NonCon=     1 RMS=5.83D-08 Max=6.65D-07 NDo=     1
 LinEq1:  Iter=  3 NonCon=     1 RMS=2.60D-08 Max=1.54D-07 NDo=     1
 LinEq1:  Iter=  4 NonCon=     1 RMS=1.19D-08 Max=1.43D-07 NDo=     1
 LinEq1:  Iter=  5 NonCon=     1 RMS=7.57D-09 Max=6.34D-08 NDo=     1
 LinEq1:  Iter=  6 NonCon=     1 RMS=3.32D-09 Max=2.48D-08 NDo=     1
 LinEq1:  Iter=  7 NonCon=     1 RMS=1.25D-09 Max=1.07D-08 NDo=     1
 LinEq1:  Iter=  8 NonCon=     0 RMS=2.51D-10 Max=2.21D-09 NDo=     1
 Linear equations converged to 2.714D-10 2.714D-09 after     8 iterations.
 LinEq1:  Iter=  0 NonCon=     1 RMS=5.40D-07 Max=4.77D-06 NDo=     1
 LinEq1:  Iter=  1 NonCon=     1 RMS=1.43D-07 Max=1.11D-06 NDo=     1
 LinEq1:  Iter=  2 NonCon=     1 RMS=5.95D-08 Max=5.25D-07 NDo=     1
 LinEq1:  Iter=  3 NonCon=     1 RMS=2.35D-08 Max=2.50D-07 NDo=     1
 LinEq1:  Iter=  4 NonCon=     1 RMS=1.60D-08 Max=1.71D-07 NDo=     1
 LinEq1:  Iter=  5 NonCon=     1 RMS=7.09D-09 Max=4.59D-08 NDo=     1
 LinEq1:  Iter=  6 NonCon=     1 RMS=3.08D-09 Max=2.11D-08 NDo=     1
 LinEq1:  Iter=  7 NonCon=     1 RMS=4.88D-10 Max=3.09D-09 NDo=     1
 LinEq1:  Iter=  8 NonCon=     0 RMS=1.52D-10 Max=1.39D-09 NDo=     1
 Linear equations converged to 3.097D-10 3.097D-09 after     8 iterations.
 LinEq1:  Iter=  0 NonCon=     1 RMS=1.05D-06 Max=9.65D-06 NDo=     1
 LinEq1:  Iter=  1 NonCon=     1 RMS=3.93D-07 Max=3.61D-06 NDo=     1
 LinEq1:  Iter=  2 NonCon=     1 RMS=9.90D-08 Max=1.14D-06 NDo=     1
 LinEq1:  Iter=  3 NonCon=     1 RMS=3.49D-08 Max=2.75D-07 NDo=     1
 LinEq1:  Iter=  4 NonCon=     1 RMS=1.23D-08 Max=1.39D-07 NDo=     1
 LinEq1:  Iter=  5 NonCon=     1 RMS=8.59D-09 Max=8.66D-08 NDo=     1
 LinEq1:  Iter=  6 NonCon=     1 RMS=4.38D-09 Max=2.44D-08 NDo=     1
 LinEq1:  Iter=  7 NonCon=     1 RMS=1.47D-09 Max=1.43D-08 NDo=     1
 LinEq1:  Iter=  8 NonCon=     0 RMS=3.43D-10 Max=3.39D-09 NDo=     1
 Linear equations converged to 3.883D-10 3.883D-09 after     8 iterations.
 LinEq1:  Iter=  0 NonCon=     1 RMS=3.57D-07 Max=3.53D-06 NDo=     1
 LinEq1:  Iter=  1 NonCon=     1 RMS=1.01D-07 Max=8.56D-07 NDo=     1
 LinEq1:  Iter=  2 NonCon=     1 RMS=4.18D-08 Max=3.12D-07 NDo=     1
 LinEq1:  Iter=  3 NonCon=     1 RMS=1.79D-08 Max=2.03D-07 NDo=     1
 LinEq1:  Iter=  4 NonCon=     1 RMS=1.22D-08 Max=1.23D-07 NDo=     1
 LinEq1:  Iter=  5 NonCon=     1 RMS=4.76D-09 Max=3.42D-08 NDo=     1
 LinEq1:  Iter=  6 NonCon=     1 RMS=2.05D-09 Max=1.63D-08 NDo=     1
 LinEq1:  Iter=  7 NonCon=     1 RMS=3.77D-10 Max=3.37D-09 NDo=     1
 LinEq1:  Iter=  8 NonCon=     0 RMS=1.43D-10 Max=1.08D-09 NDo=     1
 Linear equations converged to 1.770D-10 1.770D-09 after     8 iterations.
 QCLLim is confused:  Bigger=T Turned=T
 NLin=  3 IMin12=  1  2 I12=  0  2 IX=  1 XLMin= 0.000D+00 XLMax= 0.000D+00
 X = 0.000D+00 1.000D+00 2.000D+00
 DE= 0.000D+00 8.976D-11 8.086D-10
 LinEq1:  Iter=  0 NonCon=     1 RMS=3.61D-07 Max=2.82D-06 NDo=     1
 LinEq1:  Iter=  1 NonCon=     1 RMS=1.22D-07 Max=9.16D-07 NDo=     1
 LinEq1:  Iter=  2 NonCon=     1 RMS=4.07D-08 Max=2.44D-07 NDo=     1
 LinEq1:  Iter=  3 NonCon=     1 RMS=2.04D-08 Max=1.53D-07 NDo=     1
 LinEq1:  Iter=  4 NonCon=     1 RMS=1.18D-08 Max=1.25D-07 NDo=     1
 LinEq1:  Iter=  5 NonCon=     1 RMS=5.36D-09 Max=5.24D-08 NDo=     1
 LinEq1:  Iter=  6 NonCon=     1 RMS=1.78D-09 Max=1.34D-08 NDo=     1
 LinEq1:  Iter=  7 NonCon=     1 RMS=4.33D-10 Max=4.25D-09 NDo=     1
 LinEq1:  Iter=  8 NonCon=     0 RMS=4.45D-11 Max=3.96D-10 NDo=     1
 Linear equations converged to 1.882D-10 1.882D-09 after     8 iterations.
 LinEq1:  Iter=  0 NonCon=     1 RMS=3.89D-07 Max=3.43D-06 NDo=     1
 LinEq1:  Iter=  1 NonCon=     1 RMS=9.68D-08 Max=1.04D-06 NDo=     1
 LinEq1:  Iter=  2 NonCon=     1 RMS=3.07D-08 Max=3.13D-07 NDo=     1
 LinEq1:  Iter=  3 NonCon=     1 RMS=1.39D-08 Max=1.87D-07 NDo=     1
 LinEq1:  Iter=  4 NonCon=     1 RMS=5.28D-09 Max=3.03D-08 NDo=     1
 LinEq1:  Iter=  5 NonCon=     1 RMS=2.42D-09 Max=1.99D-08 NDo=     1
 LinEq1:  Iter=  6 NonCon=     1 RMS=1.03D-09 Max=9.04D-09 NDo=     1
 LinEq1:  Iter=  7 NonCon=     1 RMS=3.38D-10 Max=2.42D-09 NDo=     1
 LinEq1:  Iter=  8 NonCon=     0 RMS=7.65D-11 Max=5.38D-10 NDo=     1
 Linear equations converged to 2.038D-10 2.038D-09 after     8 iterations.
 QCLLim is confused:  Bigger=T Turned=T
 NLin=  3 IMin12=  1  2 I12=  0  2 IX=  1 XLMin= 0.000D+00 XLMax= 0.000D+00
 X = 0.000D+00 1.000D+00 2.000D+00
 DE= 0.000D+00 1.813D-11 7.680D-10
 LinEq1:  Iter=  0 NonCon=     1 RMS=4.18D-07 Max=2.74D-06 NDo=     1
 LinEq1:  Iter=  1 NonCon=     1 RMS=1.30D-07 Max=1.05D-06 NDo=     1
 LinEq1:  Iter=  2 NonCon=     1 RMS=3.97D-08 Max=4.08D-07 NDo=     1
 LinEq1:  Iter=  3 NonCon=     1 RMS=1.83D-08 Max=1.49D-07 NDo=     1
 LinEq1:  Iter=  4 NonCon=     1 RMS=1.08D-08 Max=1.07D-07 NDo=     1
 LinEq1:  Iter=  5 NonCon=     1 RMS=5.73D-09 Max=5.48D-08 NDo=     1
 LinEq1:  Iter=  6 NonCon=     1 RMS=2.85D-09 Max=2.99D-08 NDo=     1
 LinEq1:  Iter=  7 NonCon=     1 RMS=1.10D-09 Max=8.83D-09 NDo=     1
 LinEq1:  Iter=  8 NonCon=     1 RMS=2.72D-10 Max=2.08D-09 NDo=     1
 LinEq1:  Iter=  9 NonCon=     0 RMS=3.63D-11 Max=2.72D-10 NDo=     1
 Linear equations converged to 2.045D-10 2.045D-09 after     9 iterations.
 LinEq1:  Iter=  0 NonCon=     1 RMS=5.10D-07 Max=3.81D-06 NDo=     1
 LinEq1:  Iter=  1 NonCon=     1 RMS=7.35D-08 Max=5.50D-07 NDo=     1
 LinEq1:  Iter=  2 NonCon=     1 RMS=2.00D-08 Max=1.37D-07 NDo=     1
 LinEq1:  Iter=  3 NonCon=     1 RMS=1.06D-08 Max=1.10D-07 NDo=     1
 LinEq1:  Iter=  4 NonCon=     1 RMS=7.29D-09 Max=6.92D-08 NDo=     1
 LinEq1:  Iter=  5 NonCon=     1 RMS=2.96D-09 Max=2.46D-08 NDo=     1
 LinEq1:  Iter=  6 NonCon=     1 RMS=1.36D-09 Max=1.76D-08 NDo=     1
 LinEq1:  Iter=  7 NonCon=     1 RMS=5.54D-10 Max=6.03D-09 NDo=     1
 LinEq1:  Iter=  8 NonCon=     0 RMS=1.64D-10 Max=1.32D-09 NDo=     1
 Linear equations converged to 2.602D-10 2.602D-09 after     8 iterations.
 LinEq1:  Iter=  0 NonCon=     1 RMS=3.53D-07 Max=2.85D-06 NDo=     1
 LinEq1:  Iter=  1 NonCon=     1 RMS=1.49D-07 Max=1.51D-06 NDo=     1
 LinEq1:  Iter=  2 NonCon=     1 RMS=4.67D-08 Max=6.09D-07 NDo=     1
 LinEq1:  Iter=  3 NonCon=     1 RMS=2.35D-08 Max=2.16D-07 NDo=     1
 LinEq1:  Iter=  4 NonCon=     1 RMS=8.95D-09 Max=9.11D-08 NDo=     1
 LinEq1:  Iter=  5 NonCon=     1 RMS=6.38D-09 Max=6.05D-08 NDo=     1
 LinEq1:  Iter=  6 NonCon=     1 RMS=3.15D-09 Max=2.04D-08 NDo=     1
 LinEq1:  Iter=  7 NonCon=     1 RMS=9.29D-10 Max=6.69D-09 NDo=     1
 LinEq1:  Iter=  8 NonCon=     1 RMS=1.41D-10 Max=9.96D-10 NDo=     1
 LinEq1:  Iter=  9 NonCon=     0 RMS=5.33D-12 Max=4.79D-11 NDo=     1
 Linear equations converged to 1.241D-10 1.241D-09 after     9 iterations.
 LinEq1:  Iter=  0 NonCon=     1 RMS=3.98D-07 Max=3.22D-06 NDo=     1
 LinEq1:  Iter=  1 NonCon=     1 RMS=8.48D-08 Max=9.53D-07 NDo=     1
 LinEq1:  Iter=  2 NonCon=     1 RMS=2.66D-08 Max=1.77D-07 NDo=     1
 LinEq1:  Iter=  3 NonCon=     1 RMS=8.36D-09 Max=1.01D-07 NDo=     1
 LinEq1:  Iter=  4 NonCon=     1 RMS=6.03D-09 Max=4.77D-08 NDo=     1
 LinEq1:  Iter=  5 NonCon=     1 RMS=2.46D-09 Max=1.94D-08 NDo=     1
 LinEq1:  Iter=  6 NonCon=     1 RMS=7.43D-10 Max=5.57D-09 NDo=     1
 LinEq1:  Iter=  7 NonCon=     1 RMS=1.90D-10 Max=1.20D-09 NDo=     1
 LinEq1:  Iter=  8 NonCon=     0 RMS=3.42D-11 Max=3.17D-10 NDo=     1
 Linear equations converged to 1.708D-10 1.708D-09 after     8 iterations.
 LinEq1:  Iter=  0 NonCon=     1 RMS=3.23D-07 Max=2.98D-06 NDo=     1
 LinEq1:  Iter=  1 NonCon=     1 RMS=9.83D-08 Max=9.53D-07 NDo=     1
 LinEq1:  Iter=  2 NonCon=     1 RMS=3.01D-08 Max=3.07D-07 NDo=     1
 LinEq1:  Iter=  3 NonCon=     1 RMS=1.26D-08 Max=1.20D-07 NDo=     1
 LinEq1:  Iter=  4 NonCon=     1 RMS=7.65D-09 Max=6.66D-08 NDo=     1
 LinEq1:  Iter=  5 NonCon=     1 RMS=3.51D-09 Max=2.76D-08 NDo=     1
 LinEq1:  Iter=  6 NonCon=     1 RMS=2.27D-09 Max=2.61D-08 NDo=     1
 LinEq1:  Iter=  7 NonCon=     1 RMS=7.49D-10 Max=6.06D-09 NDo=     1
 LinEq1:  Iter=  8 NonCon=     0 RMS=1.03D-10 Max=6.46D-10 NDo=     1
 Linear equations converged to 1.412D-10 1.412D-09 after     8 iterations.
 LinEq1:  Iter=  0 NonCon=     1 RMS=1.41D-07 Max=8.87D-07 NDo=     1
 LinEq1:  Iter=  1 NonCon=     1 RMS=3.96D-08 Max=3.71D-07 NDo=     1
 LinEq1:  Iter=  2 NonCon=     1 RMS=1.48D-08 Max=1.56D-07 NDo=     1
 LinEq1:  Iter=  3 NonCon=     1 RMS=8.66D-09 Max=9.45D-08 NDo=     1
 LinEq1:  Iter=  4 NonCon=     1 RMS=3.50D-09 Max=2.44D-08 NDo=     1
 LinEq1:  Iter=  5 NonCon=     1 RMS=2.09D-09 Max=1.90D-08 NDo=     1
 LinEq1:  Iter=  6 NonCon=     1 RMS=8.84D-10 Max=8.04D-09 NDo=     1
 LinEq1:  Iter=  7 NonCon=     1 RMS=1.63D-10 Max=1.53D-09 NDo=     1
 LinEq1:  Iter=  8 NonCon=     0 RMS=5.28D-11 Max=5.07D-10 NDo=     1
 Linear equations converged to 8.261D-11 8.261D-10 after     8 iterations.
 LinEq1:  Iter=  0 NonCon=     1 RMS=1.98D-07 Max=1.90D-06 NDo=     1
 LinEq1:  Iter=  1 NonCon=     1 RMS=7.25D-08 Max=6.88D-07 NDo=     1
 LinEq1:  Iter=  2 NonCon=     1 RMS=1.81D-08 Max=2.13D-07 NDo=     1
 LinEq1:  Iter=  3 NonCon=     1 RMS=9.35D-09 Max=8.55D-08 NDo=     1
 LinEq1:  Iter=  4 NonCon=     1 RMS=5.08D-09 Max=5.21D-08 NDo=     1
 LinEq1:  Iter=  5 NonCon=     1 RMS=2.34D-09 Max=2.07D-08 NDo=     1
 LinEq1:  Iter=  6 NonCon=     1 RMS=1.51D-09 Max=1.60D-08 NDo=     1
 LinEq1:  Iter=  7 NonCon=     1 RMS=4.00D-10 Max=3.25D-09 NDo=     1
 LinEq1:  Iter=  8 NonCon=     1 RMS=7.29D-11 Max=4.68D-10 NDo=     1
 LinEq1:  Iter=  9 NonCon=     0 RMS=5.84D-12 Max=4.29D-11 NDo=     1
 Linear equations converged to 6.884D-11 6.884D-10 after     9 iterations.
 Incorrect curvature in search direction -- initial direction reversed.
 LinEq1:  Iter=  0 NonCon=     1 RMS=2.86D-07 Max=2.11D-06 NDo=     1
 LinEq1:  Iter=  1 NonCon=     1 RMS=7.56D-08 Max=7.26D-07 NDo=     1
 LinEq1:  Iter=  2 NonCon=     1 RMS=2.41D-08 Max=1.86D-07 NDo=     1
 LinEq1:  Iter=  3 NonCon=     1 RMS=1.01D-08 Max=8.19D-08 NDo=     1
 LinEq1:  Iter=  4 NonCon=     1 RMS=7.39D-09 Max=6.48D-08 NDo=     1
 LinEq1:  Iter=  5 NonCon=     1 RMS=2.77D-09 Max=2.23D-08 NDo=     1
 LinEq1:  Iter=  6 NonCon=     1 RMS=1.53D-09 Max=1.97D-08 NDo=     1
 LinEq1:  Iter=  7 NonCon=     1 RMS=6.47D-10 Max=6.15D-09 NDo=     1
 LinEq1:  Iter=  8 NonCon=     0 RMS=1.22D-10 Max=8.94D-10 NDo=     1
 Linear equations converged to 1.555D-10 1.555D-09 after     8 iterations.
 LinEq1:  Iter=  0 NonCon=     1 RMS=2.62D-07 Max=1.73D-06 NDo=     1
 LinEq1:  Iter=  1 NonCon=     1 RMS=7.08D-08 Max=6.01D-07 NDo=     1
 LinEq1:  Iter=  2 NonCon=     1 RMS=2.42D-08 Max=2.46D-07 NDo=     1
 LinEq1:  Iter=  3 NonCon=     1 RMS=1.14D-08 Max=1.03D-07 NDo=     1
 LinEq1:  Iter=  4 NonCon=     1 RMS=7.10D-09 Max=6.39D-08 NDo=     1
 LinEq1:  Iter=  5 NonCon=     1 RMS=2.72D-09 Max=1.63D-08 NDo=     1
 LinEq1:  Iter=  6 NonCon=     1 RMS=1.52D-09 Max=1.48D-08 NDo=     1
 LinEq1:  Iter=  7 NonCon=     1 RMS=6.64D-10 Max=5.04D-09 NDo=     1
 LinEq1:  Iter=  8 NonCon=     0 RMS=1.41D-10 Max=9.81D-10 NDo=     1
 Linear equations converged to 1.483D-10 1.483D-09 after     8 iterations.
 Incorrect curvature in search direction -- initial direction reversed.
 Search did not lower the energy significantly.
 No lower point found -- switch to scaled steepest descent.
     Minimum is close to point  2 DX= -2.31D-02 DF= -2.84D-14 DXR=  2.37D-02 DFR=  6.16D-04 which will be used.
 LinEq1:  Iter=  0 NonCon=     1 RMS=8.39D-08 Max=9.74D-07 NDo=     1
 LinEq1:  Iter=  1 NonCon=     1 RMS=3.39D-08 Max=2.86D-07 NDo=     1
 LinEq1:  Iter=  2 NonCon=     1 RMS=1.15D-08 Max=1.06D-07 NDo=     1
 LinEq1:  Iter=  3 NonCon=     1 RMS=8.23D-09 Max=7.45D-08 NDo=     1
 LinEq1:  Iter=  4 NonCon=     1 RMS=2.93D-09 Max=1.86D-08 NDo=     1
 LinEq1:  Iter=  5 NonCon=     1 RMS=1.61D-09 Max=1.59D-08 NDo=     1
 LinEq1:  Iter=  6 NonCon=     1 RMS=7.26D-10 Max=6.16D-09 NDo=     1
 LinEq1:  Iter=  7 NonCon=     1 RMS=1.90D-10 Max=1.13D-09 NDo=     1
 LinEq1:  Iter=  8 NonCon=     1 RMS=2.76D-11 Max=1.94D-10 NDo=     1
 LinEq1:  Iter=  9 NonCon=     0 RMS=1.68D-12 Max=1.45D-11 NDo=     1
 Linear equations converged to 2.493D-11 2.493D-10 after     9 iterations.
 LinEq1:  Iter=  0 NonCon=     1 RMS=1.18D-08 Max=9.22D-08 NDo=     1
 LinEq1:  Iter=  1 NonCon=     1 RMS=5.32D-09 Max=5.43D-08 NDo=     1
 LinEq1:  Iter=  2 NonCon=     1 RMS=1.76D-09 Max=1.56D-08 NDo=     1
 LinEq1:  Iter=  3 NonCon=     1 RMS=7.23D-10 Max=6.25D-09 NDo=     1
 LinEq1:  Iter=  4 NonCon=     1 RMS=1.48D-10 Max=1.23D-09 NDo=     1
 LinEq1:  Iter=  5 NonCon=     1 RMS=7.95D-11 Max=6.74D-10 NDo=     1
 LinEq1:  Iter=  6 NonCon=     1 RMS=1.41D-11 Max=1.18D-10 NDo=     1
 LinEq1:  Iter=  7 NonCon=     1 RMS=3.36D-12 Max=1.96D-11 NDo=     1
 LinEq1:  Iter=  8 NonCon=     0 RMS=1.43D-12 Max=1.51D-11 NDo=     1
 Linear equations converged to 2.872D-12 2.872D-11 after     8 iterations.
 SCF Done:  E(UB3LYP) =  -100.782472561     a.u. after   42 cycles
            Convg  =    0.1494D-06                   296 Fock formations.
              S**2 =  1.2969                  -V/T =  2.0027
 <Sx>= 0.0000 <Sy>= 0.0000 <Sz>= 0.5000 <S**2>= 1.2969 S= 0.7437
 <L.S>=  0.00000000000    
 Annihilation of the first spin contaminant:
 S**2 before annihilation     1.2969,   after     0.7514
 DoSCS=F DFT=T ScalE2(SS,OS)=  1.000000  1.000000
 Range of M.O.s used for correlation:     1    30
 NBasis=    30 NAE=     6 NBE=     5 NFC=     0 NFV=     0
 NROrb=     30 NOA=     6 NOB=     5 NVA=    24 NVB=    25

 **** Warning!!: The smallest beta delta epsilon is  0.69084085D-01

 Symmetrizing basis deriv contribution to polar:
 IMax=3 JMax=2 DiffMx= 0.00D+00
 G2DrvN: will do     4 centers at a time, making    1 passes.
 Calling FoFCou, ICntrl=  3107 FMM=F I1Cent=   0 AccDes= 0.00D+00.
 End of G2Drv F.D. properties file   721 does not exist.
 End of G2Drv F.D. properties file   722 does not exist.
 End of G2Drv F.D. properties file   788 does not exist.
          IDoAtm=111
          Differentiating once with respect to electric field.
                with respect to dipole field.
          Differentiating once with respect to nuclear coordinates.
 Keep R1 and R2 ints in memory in canonical form, NReq=7101519.
          There are    12 degrees of freedom in the 1st order CPHF.  IDoFFX=6 NUNeed=     3.
      9 vectors produced by pass  0 Test12= 2.24D-15 8.33D-09 XBig12= 6.70D+01 5.77D+00.
 AX will form     9 AO Fock derivatives at one time.
      9 vectors produced by pass  1 Test12= 2.24D-15 8.33D-09 XBig12= 3.64D+00 1.24D+00.
      9 vectors produced by pass  2 Test12= 2.24D-15 8.33D-09 XBig12= 1.94D-02 8.39D-02.
      8 vectors produced by pass  3 Test12= 2.24D-15 8.33D-09 XBig12= 8.30D-05 3.58D-03.
      6 vectors produced by pass  4 Test12= 2.24D-15 8.33D-09 XBig12= 1.16D-06 4.90D-04.
      4 vectors produced by pass  5 Test12= 2.24D-15 8.33D-09 XBig12= 3.08D-09 2.93D-05.
      3 vectors produced by pass  6 Test12= 2.24D-15 8.33D-09 XBig12= 5.75D-12 9.12D-07.
      1 vectors produced by pass  7 Test12= 2.24D-15 8.33D-09 XBig12= 9.38D-15 3.23D-08.
 InvSVY:  IOpt=1 It=  1 EMax= 3.37D-15
 Solved reduced A of dimension    49 with     9 vectors.
 Isotropic polarizability for W=    0.000000        9.22 Bohr**3.
 End of Minotr F.D. properties file   721 does not exist.
 End of Minotr F.D. properties file   722 does not exist.
 End of Minotr F.D. properties file   788 does not exist.

 **********************************************************************

            Population analysis using the SCF Density.

 **********************************************************************

 Alpha  occ. eigenvalues --  -24.76171  -1.22073  -0.55278  -0.46449  -0.46435
 Alpha  occ. eigenvalues --   -0.32856
 Alpha virt. eigenvalues --   -0.10661   0.26028   0.31891   0.86085   0.90962
 Alpha virt. eigenvalues --    0.91396   1.00944   1.11829   1.24972   1.24973
 Alpha virt. eigenvalues --    1.37843   1.37846   1.58677   2.14397   2.38591
 Alpha virt. eigenvalues --    3.64944   3.67167   3.67173   3.74207   3.74212
 Alpha virt. eigenvalues --    5.85668   5.93607   5.93882  66.46759
  Beta  occ. eigenvalues --  -24.73017  -1.13002  -0.43290  -0.43272  -0.32838
  Beta virt. eigenvalues --   -0.25930  -0.10708   0.26014   0.31917   0.92464
  Beta virt. eigenvalues --    0.92860   0.95553   1.05079   1.11816   1.24976
  Beta virt. eigenvalues --    1.24979   1.37820   1.37821   1.58683   2.14580
  Beta virt. eigenvalues --    2.38400   3.75836   3.75840   3.76983   3.76988
  Beta virt. eigenvalues --    3.79028   5.96279   5.96553   5.99839  66.49901
          Condensed to atoms (all electrons):
               1          2          3
     1  H    0.877737   0.121107   0.000571
     2  H    0.121107   0.880355  -0.000003
     3  F    0.000571  -0.000003   8.998558
          Atomic-Atomic Spin Densities.
               1          2          3
     1  H   -0.762723  -0.000525   0.000011
     2  H   -0.000525   0.763786   0.000000
     3  F    0.000011   0.000000   0.999965
 Mulliken charges and spin densities:
               1          2
     1  H    0.000585  -0.763237
     2  H   -0.001459   0.763261
     3  F    0.000874   0.999976
 Sum of Mulliken charges =   0.00000   1.00000
 Mulliken charges and spin densities with hydrogens summed into heavy atoms:
               1          2
     3  F    0.000000   1.000000
 APT charges:
               1
     1  H    0.002283
     2  H    0.000159
     3  F   -0.002442
 Sum of APT charges =   0.00000
 APT charges with hydrogens summed into heavy atoms:
               1
     3  F    0.000000
 Electronic spatial extent (au):  <R**2>=            504.5648
 Charge=              0.0000 electrons
 Dipole moment (field-independent basis, Debye):
    X=              0.0230    Y=              0.0000    Z=              0.0000  Tot=              0.0230
 Quadrupole moment (field-independent basis, Debye-Ang):
   XX=             -6.8173   YY=             -6.9016   ZZ=             -7.7397
   XY=              0.0001   XZ=              0.0000   YZ=              0.1065
 Traceless Quadrupole moment (field-independent basis, Debye-Ang):
   XX=              0.3356   YY=              0.2512   ZZ=             -0.5868
   XY=              0.0001   XZ=              0.0000   YZ=              0.1065
 Octapole moment (field-independent basis, Debye-Ang**2):
  XXX=            -49.8894  YYY=              0.0000  ZZZ=              0.0000  XYY=            -12.6310
  XXY=              0.0011  XXZ=              0.0001  XZZ=            -15.8574  YZZ=              0.0000
  YYZ=              0.0000  XYZ=              0.4100
 Hexadecapole moment (field-independent basis, Debye-Ang**3):
 XXXX=           -457.6362 YYYY=             -5.8757 ZZZZ=             -6.6248 XXXY=              0.0064
 XXXZ=              0.0008 YYYX=              0.0001 YYYZ=              0.0476 ZZZX=              0.0000
 ZZZY=              0.0476 XXYY=            -65.7469 XXZZ=            -78.2935 YYZZ=             -2.0834
 XXYZ=              1.5942 YYXZ=              0.0000 ZZXY=              0.0000
 N-N= 2.358622336160D+00 E-N=-2.455795981691D+02  KE= 1.005123948508D+02
  Exact polarizability:      23.183       0.000       2.470       0.000       0.057       2.019
 Approx polarizability:      31.210       0.000       2.528       0.000       0.072       1.963
                          Isotropic Fermi Contact Couplings
        Atom                 a.u.       MegaHertz       Gauss      10(-4) cm-1
     1  H(1)              -0.22770   -1017.78823    -363.17215    -339.49761
     2  H(1)               0.22762    1017.44705     363.05041     339.38380
     3  F(19)              0.03057     128.60454      45.88930      42.89786
 --------------------------------------------------------
       Center         ----  Spin Dipole Couplings  ----
                      3XX-RR        3YY-RR        3ZZ-RR
 --------------------------------------------------------
     1   Atom        0.038240     -0.019077     -0.019163
     2   Atom       -0.031740      0.015876      0.015864
     3   Atom       -3.151193      6.151733     -3.000541
 --------------------------------------------------------
                        XY            XZ            YZ
 --------------------------------------------------------
     1   Atom       -0.000000     -0.000000      0.000011
     2   Atom       -0.000000     -0.000000      0.000002
     3   Atom        0.001557      0.000195      1.162918
 --------------------------------------------------------


 ---------------------------------------------------------------------------------
              Anisotropic Spin Dipole Couplings in Principal Axis System
 ---------------------------------------------------------------------------------

       Atom             a.u.   MegaHertz   Gauss  10(-4) cm-1        Axes

              Baa    -0.0192   -10.225    -3.649    -3.411  0.0000 -0.1241  0.9923
     1 H(1)   Bbb    -0.0191   -10.178    -3.632    -3.395  0.0000  0.9923  0.1241
              Bcc     0.0382    20.403     7.280     6.806  1.0000 -0.0000 -0.0000
 
              Baa    -0.0317   -16.935    -6.043    -5.649  1.0000  0.0000  0.0000
     2 H(1)   Bbb     0.0159     8.464     3.020     2.823  0.0000 -0.1241  0.9923
              Bcc     0.0159     8.471     3.023     2.826 -0.0000  0.9923  0.1241
 
              Baa    -3.1512 -1582.610  -564.714  -527.902  1.0000 -0.0002 -0.0000
     3 F(19)  Bbb    -3.1460 -1579.999  -563.783  -527.031  0.0000 -0.1241  0.9923
              Bcc     6.2972  3162.608  1128.497  1054.933  0.0002  0.9923  0.1241
 

 ---------------------------------------------------------------------------------

 Calling FoFJK, ICntrl=    100127 FMM=F ISym2X=0 I1Cent= 0 IOpClX= 1 NMat=1 NMatS=1 NMatT=0.
 Full mass-weighted force constant matrix:
 Low frequencies ----1632.6628  -45.3331    0.0017    0.0023    0.0026   18.7312
 Low frequencies ---   24.9510  728.2411  728.5747
 ******    2 imaginary frequencies (negative Signs) ****** 
 Diagonal vibrational polarizability:
        0.5470972       0.0000372       0.0000559
 Harmonic frequencies (cm**-1), IR intensities (KM/Mole), Raman scattering
 activities (A**4/AMU), depolarization ratios for plane and unpolarized
 incident light, reduced masses (AMU), force constants (mDyne/A),
 and normal coordinates:
                      1                      2                      3
                      A                      A                      A
 Frequencies --  -1632.6628               -45.3331               713.6979
 Red. masses --      1.0078                 1.1085                 1.0115
 Frc consts  --      1.5828                 0.0013                 0.3036
 IR Inten    --      0.0053                 0.0418                 0.0011
  Atom  AN      X      Y      Z        X      Y      Z        X      Y      Z
     1   1     0.71  -0.00  -0.00     0.71   0.00   0.00    -0.00  -0.06   0.83
     2   1    -0.71   0.00   0.00     0.71  -0.00  -0.00    -0.00   0.04  -0.56
     3   9    -0.00   0.00   0.00    -0.07  -0.00  -0.00     0.00   0.00  -0.01
                      4
                      A
 Frequencies --    714.1312
 Red. masses --      1.0115
 Frc consts  --      0.3039
 IR Inten    --      0.0007
  Atom  AN      X      Y      Z
     1   1     0.00   0.83   0.06
     2   1    -0.00  -0.56  -0.04
     3   9     0.00  -0.01  -0.00

 -------------------
 - Thermochemistry -
 -------------------
 Temperature   298.150 Kelvin.  Pressure   1.00000 Atm.
 Atom     1 has atomic number  1 and mass   1.00783
 Atom     2 has atomic number  1 and mass   1.00783
 Atom     3 has atomic number  9 and mass  18.99840
 Molecular mass:    21.01405 amu.
 Principal axes and moments of inertia in atomic units:
                           1         2         3
     Eigenvalues --     0.00000 154.53591 154.53591
           X            1.00000  -0.00000   0.00000
           Y            0.00000   1.00000   0.00000
           Z            0.00000   0.00000   1.00000
 This molecule is a prolate symmetric top.
 Rotational symmetry number  1.
 Rotational temperature (Kelvin)      0.56048
 Rotational constant (GHZ):          11.678458
    2 imaginary frequencies ignored.
 Zero-point vibrational energy       8540.3 (Joules/Mol)
                                    2.04118 (Kcal/Mol)
 Vibrational temperatures:   1026.85  1027.48
          (Kelvin)
 
 Zero-point correction=                           0.003253 (Hartree/Particle)
 Thermal correction to Energy=                    0.005828
 Thermal correction to Enthalpy=                  0.006772
 Thermal correction to Gibbs Free Energy=        -0.017691
 Sum of electronic and zero-point Energies=           -100.779220
 Sum of electronic and thermal Energies=              -100.776645
 Sum of electronic and thermal Enthalpies=            -100.775701
 Sum of electronic and thermal Free Energies=         -100.800163
 
                     E (Thermal)             CV                S
                      KCal/Mol        Cal/Mol-Kelvin    Cal/Mol-Kelvin
 Total                    3.657              6.574             51.485
 Electronic               0.000              0.000              1.377
 Translational            0.889              2.981             35.068
 Rotational               0.592              1.987             14.460
 Vibrational              2.176              1.606              0.580
                       Q            Log10(Q)             Ln(Q)
 Total Bot       0.137116D+09          8.137087         18.736335
 Total V=0       0.429819D+10          9.633285         22.181459
 Vib (Bot)       0.340378D-01         -1.468038         -3.380283
 Vib (V=0)       0.106699D+01          0.028160          0.064841
 Electronic      0.200000D+01          0.301030          0.693147
 Translational   0.378633D+07          6.578219         15.146908
 Rotational      0.531957D+03          2.725877          6.276563
 -------------------------------------------------------------------
 Center     Atomic                   Forces (Hartrees/Bohr)
 Number     Number              X              Y              Z
 -------------------------------------------------------------------
      1        1          -0.035108711    0.000000007    0.000000001
      2        1           0.035313998   -0.000000003   -0.000000000
      3        9          -0.000205288   -0.000000004   -0.000000000
 -------------------------------------------------------------------
 Cartesian Forces:  Max     0.035313998 RMS     0.016599003

 GradGradGradGradGradGradGradGradGradGradGradGradGradGradGradGradGradGrad
 Berny optimization.
 Search for a local minimum.
 Step number   1 out of a maximum of    2
 All quantities printed in internal units (Hartrees-Bohrs-Radians)
 Second derivative matrix not updated -- analytic derivatives used.
 The second derivative matrix:
                          X1        Y1        Z1        X2        Y2
           X1          -0.05087
           Y1           0.00000   0.01016
           Z1           0.00000   0.00000   0.01013
           X2           0.05080  -0.00000  -0.00000  -0.05087
           Y2          -0.00000  -0.01011  -0.00000   0.00000   0.01011
           Z2          -0.00000  -0.00000  -0.01011   0.00000   0.00000
           X3           0.00007  -0.00000   0.00000   0.00007  -0.00000
           Y3          -0.00000  -0.00005  -0.00000   0.00000   0.00001
           Z3          -0.00000  -0.00000  -0.00003   0.00000   0.00000
                          Z2        X3        Y3        Z3
           Z2           0.01011
           X3          -0.00000  -0.00014
           Y3           0.00000   0.00000   0.00004
           Z3           0.00000  -0.00000   0.00000   0.00002
 ITU=  0
     Eigenvalues ---   -0.10166  -0.00016   0.01935   0.01938
 Eigenvalue     1 is  -1.02D-01 should be greater than     0.000000 Eigenvector:
                          X1        X2        X3        Y1        Y2
   1                    0.70711  -0.70710  -0.00000  -0.00000   0.00000
                          Y3        Z1        Z2        Z3
   1                    0.00000  -0.00000   0.00000   0.00000
 Eigenvalue     2 is  -1.61D-04 should be greater than     0.000000 Eigenvector:
                          X2        X1        X3        Z1        Z2
   1                    0.63961   0.63960  -0.42640   0.00000  -0.00000
                          Y1        Y2        Z3        Y3
   1                    0.00000  -0.00000  -0.00000  -0.00000
 Quadratic step=1.446D+00 exceeds max=3.000D-01 adjusted using Lamda=-6.382D-02.
 Angle between NR and scaled steps=  69.55 degrees.
 Angle between quadratic step and forces=   0.42 degrees.
 Linear search not attempted -- first point.
 B after Tr=    -0.000973   -0.000000    0.000000
         Rot=    0.939269    0.343183   -0.000000    0.000000 Ang=  40.14 deg.
 Variable       Old X    -DE/DX   Delta X   Delta X   Delta X     New X
                                 (Linear)    (Quad)   (Total)
    X1        0.00000  -0.03511   0.00000  -0.21059  -0.21157  -0.21157
    Y1        0.00000   0.00000   0.00000   0.00000   0.00000   0.00000
    Z1        0.00000   0.00000   0.00000   0.00000  -0.00000  -0.00000
    X2       -3.49599   0.03531   0.00000   0.21497   0.21400  -3.28199
    Y2        0.00000  -0.00000   0.00000  -0.00000  -0.00000  -0.00000
    Z2        0.00000  -0.00000   0.00000  -0.00000   0.00000   0.00000
    X3        7.27545  -0.00021   0.00000  -0.00146  -0.00243   7.27301
    Y3        0.00000  -0.00000   0.00000  -0.00000  -0.00000  -0.00000
    Z3        0.00000  -0.00000   0.00000  -0.00000   0.00000   0.00000
         Item               Value     Threshold  Converged?
 Maximum Force            0.035314     0.000450     NO 
 RMS     Force            0.016599     0.000300     NO 
 Maximum Displacement     0.213998     0.001800     NO 
 RMS     Displacement     0.100311     0.001200     NO 
 Predicted change in Energy=-1.958843D-02
 GradGradGradGradGradGradGradGradGradGradGradGradGradGradGradGradGradGrad


 ----------------------------------------------------------------------

 Electric dipole moment (input orientation):
 (Debye = 10**-18 statcoulomb cm , SI units = C m)
                  (au)            (Debye)         (10**-30 SI)
   Tot        0.905442D-02      0.230140D-01      0.767665D-01
   x          0.905442D-02      0.230140D-01      0.767665D-01
   y          0.000000D+00      0.000000D+00      0.000000D+00
   z          0.000000D+00      0.000000D+00      0.000000D+00

 Dipole polarizability, Alpha (input orientation).
 (esu units = cm**3 , SI units = C**2 m**2 J**-1)
 Alpha(0;0):
               (au)            (10**-24 esu)      (10**-40 SI)
   iso        0.922378D+01      0.136682D+01      0.152080D+01
   aniso      0.209422D+02      0.310331D+01      0.345290D+01
   xx         0.231827D+02      0.343531D+01      0.382230D+01
   yx         0.101827D-03      0.150893D-04      0.167891D-04
   yy         0.246968D+01      0.365969D+00      0.407196D+00
   zx         0.106876D-04      0.158374D-05      0.176215D-05
   zy         0.572311D-01      0.848077D-02      0.943613D-02
   zz         0.201901D+01      0.299186D+00      0.332889D+00

 ----------------------------------------------------------------------

 Dipole orientation:
     1          0.00000000          0.00000000          0.00000000
     1         -0.00000340          0.00002258         -3.49599333
     9          0.00000708         -0.00004698          7.27544558

 Electric dipole moment (dipole orientation):
 (Debye = 10**-18 statcoulomb cm , SI units = C m)
                  (au)            (Debye)         (10**-30 SI)
   Tot        0.905442D-02      0.230140D-01      0.767665D-01
   x          0.000000D+00      0.000000D+00      0.000000D+00
   y          0.000000D+00      0.000000D+00      0.000000D+00
   z          0.905442D-02      0.230140D-01      0.767665D-01

 Dipole polarizability, Alpha (dipole orientation).
 (esu units = cm**3 , SI units = C**2 m**2 J**-1)
 Alpha(0;0):
               (au)            (10**-24 esu)      (10**-40 SI)
   iso        0.922378D+01      0.136682D+01      0.152080D+01
   aniso      0.209422D+02      0.310331D+01      0.345290D+01
   xx         0.201901D+01      0.299186D+00      0.332890D+00
   yx        -0.572340D-01     -0.848120D-02     -0.943661D-02
   yy         0.246968D+01      0.365969D+00      0.407195D+00
   zx         0.000000D+00      0.000000D+00      0.000000D+00
   zy        -0.318734D-04     -0.472315D-05     -0.525522D-05
   zz         0.231827D+02      0.343531D+01      0.382230D+01

 ----------------------------------------------------------------------
 Unable to Open any file for archive entry.
 1\1\GINC-DESKTOP-B3RIHJD\Freq\UB3LYP\6-311G(d,p)\F1H2(2)\GARYX\23-Aug-
 2025\0\\# sp b3lyp/6-311g** Force nosymm scf=(qc)\\Title Card Required
 \\0,2\H,0.,0.,0.\H,-1.85,0.,0.\F,3.85,0.,0.\\Version=ES64L-G16RevC.01\
 HF=-100.7824726\S2=1.296855\S2-1=0.\S2A=0.751394\RMSD=9.111e-09\RMSF=1
 .660e-02\ZeroPoint=0.0032528\Thermal=0.0058277\ETot=-100.7766449\HTot=
 -100.7757007\GTot=-100.8001631\Dipole=0.0090544,0.,0.\DipoleDeriv=0.00
 60708,0.,0.0000003,0.0000042,0.000292,-0.0000246,0.0000005,-0.0000238,
 0.000485,0.0027661,0.,0.,-0.000001,-0.0011169,0.000007,-0.0000001,0.00
 00069,-0.0011711,-0.0088368,0.,-0.0000003,-0.0000033,0.0008249,0.00001
 76,-0.0000004,0.0000169,0.0006861\Polar=23.1826537,0.0001018,2.4696818
 ,0.0000107,0.0572311,2.0190081\Quadrupole=0.249489,0.1867854,-0.436274
 4,0.0001058,0.0000133,0.079168\PG=C*V [C*(H1H1F1)]\NImag=2\\-0.0508680
 7,0.00000002,0.01016051,0.,0.00000155,0.01013359,0.05079685,-0.0000000
 2,0.,-0.05086735,0.,-0.01011184,-0.00000055,0.,0.01010616,0.,-0.000000
 57,-0.01010738,0.,0.00000010,0.01010540,0.00007122,0.,0.,0.00007050,0.
 ,0.,-0.00014172,-0.00000002,-0.00004867,-0.00000100,0.00000001,0.00000
 568,0.00000047,0.,0.00004299,0.,-0.00000099,-0.00002621,0.,0.00000045,
 0.00000198,0.,0.00000053,0.00002423\\0.03510871,0.,0.,-0.03531400,0.,0
 .,0.00020529,0.,0.\\\@
 The archive entry for this job was punched.


 EVERYTHING'S GOT A MORAL, IF ONLY YOU CAN FIND IT.

                                    -- LEWIS CARROL, ALICE IN WONDERLAND
 Job cpu time:       0 days  0 hours  0 minutes 47.2 seconds.
 Elapsed time:       0 days  0 hours  0 minutes  6.4 seconds.
 File lengths (MBytes):  RWF=      6 Int=      0 D2E=      0 Chk=      1 Scr=      1
 Normal termination of Gaussian 16 at Sat Aug 23 01:04:45 2025.
