 Entering Gaussian System, Link 0=g16
 Initial command:
 /home/garyx/gaussian/g16/l1.exe "/tmp/gaussian_scratch/Gau-109947.inp" -scrdir="/tmp/gaussian_scratch/"
 Entering Link 1 = /home/garyx/gaussian/g16/l1.exe PID=    109949.
  
 Copyright (c) 1988-2019, Gaussian, Inc.  All Rights Reserved.
  
 This is part of the Gaussian(R) 16 program.  It is based on
 the Gaussian(R) 09 system (copyright 2009, Gaussian, Inc.),
 the Gaussian(R) 03 system (copyright 2003, Gaussian, Inc.),
 the Gaussian(R) 98 system (copyright 1998, Gaussian, Inc.),
 the Gaussian(R) 94 system (copyright 1995, Gaussian, Inc.),
 the Gaussian 92(TM) system (copyright 1992, Gaussian, Inc.),
 the Gaussian 90(TM) system (copyright 1990, Gaussian, Inc.),
 the Gaussian 88(TM) system (copyright 1988, Gaussian, Inc.),
 the Gaussian 86(TM) system (copyright 1986, Carnegie Mellon
 University), and the Gaussian 82(TM) system (copyright 1983,
 Carnegie Mellon University). Gaussian is a federally registered
 trademark of Gaussian, Inc.
  
 This software contains proprietary and confidential information,
 including trade secrets, belonging to Gaussian, Inc.
  
 This software is provided under written license and may be
 used, copied, transmitted, or stored only in accord with that
 written license.
  
 The following legend is applicable only to US Government
 contracts under FAR:
  
                    RESTRICTED RIGHTS LEGEND
  
 Use, reproduction and disclosure by the US Government is
 subject to restrictions as set forth in subparagraphs (a)
 and (c) of the Commercial Computer Software - Restricted
 Rights clause in FAR 52.227-19.
  
 Gaussian, Inc.
 340 Quinnipiac St., Bldg. 40, Wallingford CT 06492
  
  
 ---------------------------------------------------------------
 Warning -- This program may not be used in any manner that
 competes with the business of Gaussian, Inc. or will provide
 assistance to any competitor of Gaussian, Inc.  The licensee
 of this program is prohibited from giving any competitor of
 Gaussian, Inc. access to this program.  By using this program,
 the user acknowledges that Gaussian, Inc. is engaged in the
 business of creating and licensing software in the field of
 computational chemistry and represents and warrants to the
 licensee that it is not a competitor of Gaussian, Inc. and that
 it will not use this program in any manner prohibited above.
 ---------------------------------------------------------------
  

 Cite this work as:
 Gaussian 16, Revision C.01,
 M. J. Frisch, G. W. Trucks, H. B. Schlegel, G. E. Scuseria, 
 M. A. Robb, J. R. Cheeseman, G. Scalmani, V. Barone, 
 G. A. Petersson, H. Nakatsuji, X. Li, M. Caricato, A. V. Marenich, 
 J. Bloino, B. G. Janesko, R. Gomperts, B. Mennucci, H. P. Hratchian, 
 J. V. Ortiz, A. F. Izmaylov, J. L. Sonnenberg, D. Williams-Young, 
 F. Ding, F. Lipparini, F. Egidi, J. Goings, B. Peng, A. Petrone, 
 T. Henderson, D. Ranasinghe, V. G. Zakrzewski, J. Gao, N. Rega, 
 G. Zheng, W. Liang, M. Hada, M. Ehara, K. Toyota, R. Fukuda, 
 J. Hasegawa, M. Ishida, T. Nakajima, Y. Honda, O. Kitao, H. Nakai, 
 T. Vreven, K. Throssell, J. A. Montgomery, Jr., J. E. Peralta, 
 F. Ogliaro, M. J. Bearpark, J. J. Heyd, E. N. Brothers, K. N. Kudin, 
 V. N. Staroverov, T. A. Keith, R. Kobayashi, J. Normand, 
 K. Raghavachari, A. P. Rendell, J. C. Burant, S. S. Iyengar, 
 J. Tomasi, M. Cossi, J. M. Millam, M. Klene, C. Adamo, R. Cammi, 
 J. W. Ochterski, R. L. Martin, K. Morokuma, O. Farkas, 
 J. B. Foresman, and D. J. Fox, Gaussian, Inc., Wallingford CT, 2019.
 
 ******************************************
 Gaussian 16:  ES64L-G16RevC.01  3-Jul-2019
                22-Aug-2025 
 ******************************************
 %mem=10GB
 %nprocs=8
 Will use up to    8 processors via shared memory.
 -----------------------------------------
 # sp b3lyp/6-311g** Force nosymm scf=(qc)
 -----------------------------------------
 1/10=4,30=1,38=1/1,3;
 2/12=2,15=1,17=6,18=5,40=1/2;
 3/5=4,6=6,7=101,11=2,25=1,30=1,71=2,74=-5,140=1/1,2,3;
 4//1;
 5/5=2,8=3,38=5,98=1/8;
 8/6=4,10=90,11=11/1;
 11/6=1,8=1,9=11,15=111,16=1,31=1/1,2,10;
 10/6=1,31=1/2;
 6/7=2,8=2,9=2,10=2,28=1/1;
 7/8=1,10=1,25=1,30=1/1,2,3,16;
 1/10=4,30=1/3;
 99//99;
 -------------------
 Title Card Required
 -------------------
 Symbolic Z-matrix:
 Charge =  0 Multiplicity = 2
 H                     0.        0.        0. 
 H                    -1.5       0.        0. 
 F                     0.7       0.        0. 
 

 GradGradGradGradGradGradGradGradGradGradGradGradGradGradGradGradGradGrad
 Berny optimization.
 Initialization pass.
 Trust Radius=3.00D-01 FncErr=1.00D-07 GrdErr=1.00D-07 EigMax=2.50D+02 EigMin=1.00D-04
 Number of steps in this run=      2 maximum allowed number of steps=      2.
 GradGradGradGradGradGradGradGradGradGradGradGradGradGradGradGradGradGrad

                          Input orientation:                          
 ---------------------------------------------------------------------
 Center     Atomic      Atomic             Coordinates (Angstroms)
 Number     Number       Type             X           Y           Z
 ---------------------------------------------------------------------
      1          1           0        0.000000    0.000000    0.000000
      2          1           0       -1.500000    0.000000    0.000000
      3          9           0        0.700000    0.000000    0.000000
 ---------------------------------------------------------------------
                    Distance matrix (angstroms):
                    1          2          3
     1  H    0.000000
     2  H    1.500000   0.000000
     3  F    0.700000   2.200000   0.000000
 Symmetry turned off by external request.
 Stoichiometry    FH2(2)
 Framework group  C*V[C*(HHF)]
 Deg. of freedom     2
 Full point group                 C*V     NOp   4
 Rotational constants (GHZ):           0.0000000         101.7839887         101.7839887
 Standard basis: 6-311G(d,p) (5D, 7F)
    30 basis functions,    48 primitive gaussians,    31 cartesian basis functions
     6 alpha electrons        5 beta electrons
       nuclear repulsion energy         9.3213076677 Hartrees.
 NAtoms=    3 NActive=    3 NUniq=    3 SFac= 1.00D+00 NAtFMM=   60 NAOKFM=F Big=F
 Integral buffers will be    131072 words long.
 Raffenetti 2 integral format.
 Two-electron integral symmetry is turned off.
 One-electron integrals computed using PRISM.
 NBasis=    30 RedAO= T EigKep=  9.62D-03  NBF=    30
 NBsUse=    30 1.00D-06 EigRej= -1.00D+00 NBFU=    30
 ExpMin= 1.03D-01 ExpMax= 1.14D+04 ExpMxC= 1.72D+03 IAcc=3 IRadAn=         5 AccDes= 0.00D+00
 Harris functional with IExCor=  402 and IRadAn=       5 diagonalized for initial guess.
 HarFok:  IExCor=  402 AccDes= 0.00D+00 IRadAn=         5 IDoV= 1 UseB2=F ITyADJ=14
 ICtDFT=  3500011 ScaDFX=  1.000000  1.000000  1.000000  1.000000
 FoFCou: FMM=F IPFlag=           0 FMFlag=      100000 FMFlg1=           0
         NFxFlg=           0 DoJE=T BraDBF=F KetDBF=T FulRan=T
         wScrn=  0.000000 ICntrl=       500 IOpCl=  0 I1Cent=   200000004 NGrid=           0
         NMat0=    1 NMatS0=      1 NMatT0=    0 NMatD0=    1 NMtDS0=    0 NMtDT0=    0
 Symmetry not used in FoFCou.
 Initial guess <Sx>= 0.0000 <Sy>= 0.0000 <Sz>= 0.5000 <S**2>= 0.7500 S= 0.5000
 Keep R1 and R2 ints in memory in canonical form, NReq=7127049.
 Gradient too large for Newton-Raphson -- use scaled steepest descent instead.
     Accept linear search using points  2 and  3.
 Gradient too large for Newton-Raphson -- use scaled steepest descent instead.
     Minimum is close to point  3 DX=  3.00D-02 DF= -3.56D-06 DXR=  4.12D-02 DFR=  1.70D-03 which will be used.
 Gradient too large for Newton-Raphson -- use scaled steepest descent instead.
 LinEq1:  Iter=  0 NonCon=     1 RMS=5.72D-04 Max=5.43D-03 NDo=     1
 AX will form     1 AO Fock derivatives at one time.
 LinEq1:  Iter=  1 NonCon=     1 RMS=3.27D-04 Max=2.93D-03 NDo=     1
 LinEq1:  Iter=  2 NonCon=     1 RMS=5.36D-05 Max=6.43D-04 NDo=     1
 LinEq1:  Iter=  3 NonCon=     1 RMS=2.89D-06 Max=2.83D-05 NDo=     1
 LinEq1:  Iter=  4 NonCon=     1 RMS=4.19D-07 Max=4.40D-06 NDo=     1
 LinEq1:  Iter=  5 NonCon=     1 RMS=8.26D-08 Max=3.83D-07 NDo=     1
 LinEq1:  Iter=  6 NonCon=     1 RMS=1.29D-08 Max=5.71D-08 NDo=     1
 LinEq1:  Iter=  7 NonCon=     1 RMS=1.72D-09 Max=9.56D-09 NDo=     1
 LinEq1:  Iter=  8 NonCon=     0 RMS=1.59D-10 Max=7.77D-10 NDo=     1
 Linear equations converged to 1.640D-09 1.640D-08 after     8 iterations.
     Accept linear search using points  1 and  2.
     Minimum is close to point  2 DX= -2.21D-03 DF= -2.97D-10 DXR=  2.22D-03 DFR=  4.92D-06 which will be used.
 LinEq1:  Iter=  0 NonCon=     1 RMS=3.16D-06 Max=4.69D-05 NDo=     1
 LinEq1:  Iter=  1 NonCon=     1 RMS=3.90D-07 Max=2.17D-06 NDo=     1
 LinEq1:  Iter=  2 NonCon=     1 RMS=2.01D-07 Max=1.74D-06 NDo=     1
 LinEq1:  Iter=  3 NonCon=     1 RMS=2.02D-08 Max=1.88D-07 NDo=     1
 LinEq1:  Iter=  4 NonCon=     1 RMS=2.36D-09 Max=1.98D-08 NDo=     1
 LinEq1:  Iter=  5 NonCon=     1 RMS=4.28D-10 Max=1.94D-09 NDo=     1
 LinEq1:  Iter=  6 NonCon=     0 RMS=7.56D-11 Max=3.92D-10 NDo=     1
 Linear equations converged to 3.347D-10 3.347D-09 after     6 iterations.
 SCF Done:  E(UB3LYP) =  -100.869190425     a.u. after    6 cycles
            Convg  =    0.4292D-08                    26 Fock formations.
              S**2 =  0.7502                  -V/T =  1.9930
 <Sx>= 0.0000 <Sy>= 0.0000 <Sz>= 0.5000 <S**2>= 0.7502 S= 0.5001
 <L.S>=  0.00000000000    
 Annihilation of the first spin contaminant:
 S**2 before annihilation     0.7502,   after     0.7500
 DoSCS=F DFT=T ScalE2(SS,OS)=  1.000000  1.000000
 Range of M.O.s used for correlation:     1    30
 NBasis=    30 NAE=     6 NBE=     5 NFC=     0 NFV=     0
 NROrb=     30 NOA=     6 NOB=     5 NVA=    24 NVB=    25
 Symmetrizing basis deriv contribution to polar:
 IMax=3 JMax=2 DiffMx= 0.00D+00
 G2DrvN: will do     4 centers at a time, making    1 passes.
 Calling FoFCou, ICntrl=  3107 FMM=F I1Cent=   0 AccDes= 0.00D+00.
 End of G2Drv F.D. properties file   721 does not exist.
 End of G2Drv F.D. properties file   722 does not exist.
 End of G2Drv F.D. properties file   788 does not exist.
          IDoAtm=111
          Differentiating once with respect to electric field.
                with respect to dipole field.
          Differentiating once with respect to nuclear coordinates.
 Keep R1 and R2 ints in memory in canonical form, NReq=7101505.
          There are    12 degrees of freedom in the 1st order CPHF.  IDoFFX=6 NUNeed=     3.
      9 vectors produced by pass  0 Test12= 2.24D-15 8.33D-09 XBig12= 5.16D+00 1.53D+00.
 AX will form     9 AO Fock derivatives at one time.
      9 vectors produced by pass  1 Test12= 2.24D-15 8.33D-09 XBig12= 2.06D-01 1.76D-01.
      9 vectors produced by pass  2 Test12= 2.24D-15 8.33D-09 XBig12= 5.40D-03 3.32D-02.
      9 vectors produced by pass  3 Test12= 2.24D-15 8.33D-09 XBig12= 1.96D-05 1.39D-03.
      9 vectors produced by pass  4 Test12= 2.24D-15 8.33D-09 XBig12= 1.10D-07 1.19D-04.
      5 vectors produced by pass  5 Test12= 2.24D-15 8.33D-09 XBig12= 5.07D-10 7.23D-06.
      1 vectors produced by pass  6 Test12= 2.24D-15 8.33D-09 XBig12= 8.79D-13 3.48D-07.
      1 vectors produced by pass  7 Test12= 2.24D-15 8.33D-09 XBig12= 1.84D-15 1.15D-08.
 InvSVY:  IOpt=1 It=  1 EMax= 7.77D-16
 Solved reduced A of dimension    52 with     9 vectors.
 Isotropic polarizability for W=    0.000000        4.14 Bohr**3.
 End of Minotr F.D. properties file   721 does not exist.
 End of Minotr F.D. properties file   722 does not exist.
 End of Minotr F.D. properties file   788 does not exist.

 **********************************************************************

            Population analysis using the SCF Density.

 **********************************************************************

 Alpha  occ. eigenvalues --  -24.63197  -1.28453  -0.59443  -0.41810  -0.41810
 Alpha  occ. eigenvalues --   -0.35998
 Alpha virt. eigenvalues --    0.13346   0.21679   0.52774   0.93144   0.93144
 Alpha virt. eigenvalues --    0.95216   1.17423   1.17423   1.34595   1.48347
 Alpha virt. eigenvalues --    1.48347   1.58547   2.01000   2.17940   3.12715
 Alpha virt. eigenvalues --    3.78984   3.78984   4.31006   4.31006   4.99974
 Alpha virt. eigenvalues --    6.03404   6.03404   7.19928  66.89176
  Beta  occ. eigenvalues --  -24.63070  -1.28091  -0.58701  -0.41712  -0.41712
  Beta virt. eigenvalues --   -0.12460   0.14618   0.29725   0.56951   0.93303
  Beta virt. eigenvalues --    0.93303   0.95504   1.30766   1.30766   1.40039
  Beta virt. eigenvalues --    1.52833   1.52833   1.67176   2.01346   2.39895
  Beta virt. eigenvalues --    3.16230   3.79048   3.79048   4.31252   4.31252
  Beta virt. eigenvalues --    5.00404   6.03482   6.03482   7.20331  66.89302
          Condensed to atoms (all electrons):
               1          2          3
     1  H    0.385134   0.034100   0.335067
     2  H    0.034100   0.974923  -0.022536
     3  F    0.335067  -0.022536   8.946681
          Atomic-Atomic Spin Densities.
               1          2          3
     1  H   -0.007724   0.022192  -0.000498
     2  H    0.022192   0.967815  -0.023751
     3  F   -0.000498  -0.023751   0.044023
 Mulliken charges and spin densities:
               1          2
     1  H    0.245699   0.013970
     2  H    0.013513   0.966256
     3  F   -0.259212   0.019774
 Sum of Mulliken charges =   0.00000   1.00000
 Mulliken charges and spin densities with hydrogens summed into heavy atoms:
               1          2
     3  F    0.000000   1.000000
 APT charges:
               1
     1  H    0.399719
     2  H    0.035369
     3  F   -0.435087
 Sum of APT charges =   0.00000
 APT charges with hydrogens summed into heavy atoms:
               1
     3  F    0.000000
 Electronic spatial extent (au):  <R**2>=             38.8184
 Charge=              0.0000 electrons
 Dipole moment (field-independent basis, Debye):
    X=             -1.6421    Y=             -0.0000    Z=             -0.0000  Tot=              1.6421
 Quadrupole moment (field-independent basis, Debye-Ang):
   XX=             -7.0780   YY=             -6.5724   ZZ=             -6.5724
   XY=             -0.0000   XZ=             -0.0000   YZ=             -0.0000
 Traceless Quadrupole moment (field-independent basis, Debye-Ang):
   XX=             -0.3371   YY=              0.1685   ZZ=              0.1685
   XY=             -0.0000   XZ=             -0.0000   YZ=             -0.0000
 Octapole moment (field-independent basis, Debye-Ang**2):
  XXX=             -5.3535  YYY=             -0.0000  ZZZ=             -0.0000  XYY=             -1.6235
  XXY=             -0.0000  XXZ=              0.0000  XZZ=             -1.6235  YZZ=             -0.0000
  YYZ=             -0.0000  XYZ=             -0.0000
 Hexadecapole moment (field-independent basis, Debye-Ang**3):
 XXXX=            -34.8339 YYYY=             -4.4986 ZZZZ=             -4.4986 XXXY=             -0.0000
 XXXZ=              0.0000 YYYX=             -0.0000 YYYZ=             -0.0000 ZZZX=             -0.0000
 ZZZY=             -0.0000 XXYY=             -6.8315 XXZZ=             -6.8315 YYZZ=             -1.4995
 XXYZ=             -0.0000 YYXZ=             -0.0000 ZZXY=             -0.0000
 N-N= 9.321307667677D+00 E-N=-2.603579493140D+02  KE= 1.015818818255D+02
  Exact polarizability:       7.339       0.000       2.537      -0.000       0.000       2.537
 Approx polarizability:       7.150      -0.000       2.549       0.000       0.000       2.549
                          Isotropic Fermi Contact Couplings
        Atom                 a.u.       MegaHertz       Gauss      10(-4) cm-1
     1  H(1)              -0.00066      -2.95493      -1.05439      -0.98566
     2  H(1)               0.30436    1360.43867     485.43835     453.79349
     3  F(19)              0.01898      79.84311      28.49001      26.63279
 --------------------------------------------------------
       Center         ----  Spin Dipole Couplings  ----
                      3XX-RR        3YY-RR        3ZZ-RR
 --------------------------------------------------------
     1   Atom        0.121636     -0.060818     -0.060818
     2   Atom        0.002100     -0.001050     -0.001050
     3   Atom        0.262031     -0.131016     -0.131016
 --------------------------------------------------------
                        XY            XZ            YZ
 --------------------------------------------------------
     1   Atom        0.000000      0.000000      0.000000
     2   Atom        0.000000      0.000000      0.000000
     3   Atom        0.000000      0.000000      0.000000
 --------------------------------------------------------


 ---------------------------------------------------------------------------------
              Anisotropic Spin Dipole Couplings in Principal Axis System
 ---------------------------------------------------------------------------------

       Atom             a.u.   MegaHertz   Gauss  10(-4) cm-1        Axes

              Baa    -0.0608   -32.450   -11.579   -10.824 -0.0000  1.0000  0.0000
     1 H(1)   Bbb    -0.0608   -32.450   -11.579   -10.824  0.0000  0.0000  1.0000
              Bcc     0.1216    64.899    23.158    21.648  1.0000  0.0000  0.0000
 
              Baa    -0.0010    -0.560    -0.200    -0.187 -0.0000  1.0000  0.0000
     2 H(1)   Bbb    -0.0010    -0.560    -0.200    -0.187  0.0000  0.0000  1.0000
              Bcc     0.0021     1.120     0.400     0.374  1.0000  0.0000  0.0000
 
              Baa    -0.1310   -65.799   -23.479   -21.948 -0.0000  1.0000  0.0000
     3 F(19)  Bbb    -0.1310   -65.799   -23.479   -21.948  0.0000  0.0000  1.0000
              Bcc     0.2620   131.599    46.958    43.897  1.0000  0.0000  0.0000
 

 ---------------------------------------------------------------------------------

 Calling FoFJK, ICntrl=    100127 FMM=F ISym2X=0 I1Cent= 0 IOpClX= 1 NMat=1 NMatS=1 NMatT=0.
 Full mass-weighted force constant matrix:
 Low frequencies ----3642.3103-3642.3103 -337.5713 -337.5713    0.0015    0.0016
 Low frequencies ---    0.0016  824.4647 9052.1332
 ******    2 imaginary frequencies (negative Signs) ****** 
 Diagonal vibrational polarizability:
        0.1847300       0.3375484       0.3375484
 Harmonic frequencies (cm**-1), IR intensities (KM/Mole), Raman scattering
 activities (A**4/AMU), depolarization ratios for plane and unpolarized
 incident light, reduced masses (AMU), force constants (mDyne/A),
 and normal coordinates:
                      1                      2                      3
                      A                      A                      A
 Frequencies --  -3475.3045             -3475.3045               824.4647
 Red. masses --      1.0292                 1.0292                 1.0535
 Frc consts  --      7.3236                 7.3236                 0.4219
 IR Inten    --    151.4916               151.4916                 3.4578
  Atom  AN      X      Y      Z        X      Y      Z        X      Y      Z
     1   1    -0.00  -0.00   0.95    -0.00   0.95   0.00    -0.05  -0.00  -0.00
     2   1     0.00   0.00  -0.30     0.00  -0.30  -0.00     1.00   0.00   0.00
     3   9    -0.00   0.00  -0.03    -0.00  -0.03  -0.00    -0.05   0.00   0.00
                      4
                      A
 Frequencies --   9052.1332
 Red. masses --      1.0581
 Frc consts  --     51.0816
 IR Inten    --    145.6557
  Atom  AN      X      Y      Z
     1   1     1.00   0.00   0.00
     2   1    -0.00  -0.00  -0.00
     3   9    -0.05  -0.00  -0.00

 -------------------
 - Thermochemistry -
 -------------------
 Temperature   298.150 Kelvin.  Pressure   1.00000 Atm.
 Atom     1 has atomic number  1 and mass   1.00783
 Atom     2 has atomic number  1 and mass   1.00783
 Atom     3 has atomic number  9 and mass  18.99840
 Molecular mass:    21.01405 amu.
 Principal axes and moments of inertia in atomic units:
                           1         2         3
     Eigenvalues --     0.00000  17.73109  17.73109
           X            1.00000  -0.00000   0.00000
           Y            0.00000   1.00000   0.00000
           Z            0.00000   0.00000   1.00000
 This molecule is a prolate symmetric top.
 Rotational symmetry number  1.
 Rotational temperature (Kelvin)      4.88486
 Rotational constant (GHZ):         101.783989
    2 imaginary frequencies ignored.
 Zero-point vibrational energy      59075.2 (Joules/Mol)
                                   14.11931 (Kcal/Mol)
 Vibrational temperatures:   1186.22 13024.00
          (Kelvin)
 
 Zero-point correction=                           0.022501 (Hartree/Particle)
 Thermal correction to Energy=                    0.024933
 Thermal correction to Enthalpy=                  0.025877
 Thermal correction to Gibbs Free Energy=         0.003645
 Sum of electronic and zero-point Energies=           -100.846690
 Sum of electronic and thermal Energies=              -100.844258
 Sum of electronic and thermal Enthalpies=            -100.843314
 Sum of electronic and thermal Free Energies=         -100.865546
 
                     E (Thermal)             CV                S
                      KCal/Mol        Cal/Mol-Kelvin    Cal/Mol-Kelvin
 Total                   15.645              5.579             46.791
 Electronic               0.000              0.000              1.377
 Translational            0.889              2.981             35.068
 Rotational               0.592              1.987             10.158
 Vibrational             14.164              0.611              0.188
                       Q            Log10(Q)             Ln(Q)
 Total Bot       0.210626D-01         -1.676489         -3.860258
 Total V=0       0.471015D+09          8.673035         19.970400
 Vib (Bot)       0.455701D-10        -10.341320        -23.811769
 Vib (V=0)       0.101907D+01          0.008203          0.018889
 Electronic      0.200000D+01          0.301030          0.693147
 Translational   0.378633D+07          6.578219         15.146908
 Rotational      0.610355D+02          1.785583          4.111456
 -------------------------------------------------------------------
 Center     Atomic                   Forces (Hartrees/Bohr)
 Number     Number              X              Y              Z
 -------------------------------------------------------------------
      1        1          -0.621209796    0.000000000   -0.000000000
      2        1          -0.012587100   -0.000000000    0.000000000
      3        9           0.633796896   -0.000000000    0.000000000
 -------------------------------------------------------------------
 Cartesian Forces:  Max     0.633796896 RMS     0.295852544

 GradGradGradGradGradGradGradGradGradGradGradGradGradGradGradGradGradGrad
 Berny optimization.
 Search for a local minimum.
 Step number   1 out of a maximum of    2
 All quantities printed in internal units (Hartrees-Bohrs-Radians)
 Second derivative matrix not updated -- analytic derivatives used.
 The second derivative matrix:
                          X1        Y1        Z1        X2        Y2
           X1           2.96853
           Y1           0.00000  -0.48081
           Z1           0.00000   0.00000  -0.48081
           X2          -0.00838  -0.00000  -0.00000   0.02470
           Y2          -0.00000   0.00356  -0.00000   0.00000  -0.00416
           Z2           0.00000  -0.00000   0.00356   0.00000   0.00000
           X3          -2.96016  -0.00000  -0.00000  -0.01632   0.00000
           Y3          -0.00000   0.47725  -0.00000  -0.00000   0.00060
           Z3          -0.00000  -0.00000   0.47725  -0.00000   0.00000
                          Z2        X3        Y3        Z3
           Z2          -0.00416
           X3          -0.00000   2.97648
           Y3           0.00000   0.00000  -0.47785
           Z3           0.00060   0.00000   0.00000  -0.47785
 ITU=  0
     Eigenvalues ---   -0.62888  -0.62888   0.03430   4.85305
 Eigenvalue     1 is  -6.29D-01 should be greater than     0.000000 Eigenvector:
                          Z1        Z2        Z3        Y1        Y2
   1                    0.93133  -0.29633  -0.21167  -0.00346   0.00110
                          Y3        X2        X1        X3
   1                    0.00079   0.00000  -0.00000  -0.00000
 Eigenvalue     2 is  -6.29D-01 should be greater than     0.000000 Eigenvector:
                          Y1        Y2        Y3        Z1        Z2
   1                    0.93133  -0.29633  -0.21167   0.00346  -0.00110
                          Z3        X2        X1        X3
   1                   -0.00079   0.00000  -0.00000  -0.00000
 Quadratic step=4.545D-01 exceeds max=3.000D-01 adjusted using Lamda=-2.354D-02.
 Angle between NR and scaled steps=  11.89 degrees.
 Angle between quadratic step and forces=  59.50 degrees.
 Linear search not attempted -- first point.
 B after Tr=     0.078358   -0.000000    0.000000
         Rot=    0.984733   -0.174073    0.000000    0.000000 Ang= -20.05 deg.
 Variable       Old X    -DE/DX   Delta X   Delta X   Delta X     New X
                                 (Linear)    (Quad)   (Total)
    X1        0.00000  -0.62121   0.00000  -0.09243  -0.01408  -0.01408
    Y1        0.00000   0.00000   0.00000   0.00000   0.00000   0.00000
    Z1        0.00000  -0.00000   0.00000  -0.00000  -0.00000  -0.00000
    X2       -2.83459  -0.01259   0.00000  -0.26018  -0.18182  -3.01641
    Y2        0.00000  -0.00000   0.00000  -0.00000  -0.00000  -0.00000
    Z2        0.00000   0.00000   0.00000   0.00000   0.00000   0.00000
    X3        1.32281   0.63380   0.00000   0.11754   0.19589   1.51870
    Y3        0.00000  -0.00000   0.00000  -0.00000  -0.00000  -0.00000
    Z3        0.00000   0.00000   0.00000   0.00000   0.00000   0.00000
         Item               Value     Threshold  Converged?
 Maximum Force            0.633797     0.000450     NO 
 RMS     Force            0.295853     0.000300     NO 
 Maximum Displacement     0.195895     0.001800     NO 
 RMS     Displacement     0.089213     0.001200     NO 
 Predicted change in Energy=-6.865488D-02
 GradGradGradGradGradGradGradGradGradGradGradGradGradGradGradGradGradGrad


 ----------------------------------------------------------------------

 Electric dipole moment (input orientation):
 (Debye = 10**-18 statcoulomb cm , SI units = C m)
                  (au)            (Debye)         (10**-30 SI)
   Tot        0.646044D+00      0.164208D+01      0.547739D+01
   x         -0.646044D+00     -0.164208D+01     -0.547739D+01
   y          0.000000D+00      0.000000D+00      0.000000D+00
   z          0.000000D+00      0.000000D+00      0.000000D+00

 Dipole polarizability, Alpha (input orientation).
 (esu units = cm**3 , SI units = C**2 m**2 J**-1)
 Alpha(0;0):
               (au)            (10**-24 esu)      (10**-40 SI)
   iso        0.413807D+01      0.613199D+00      0.682276D+00
   aniso      0.480195D+01      0.711575D+00      0.791734D+00
   xx         0.733937D+01      0.108758D+01      0.121010D+01
   yx         0.000000D+00      0.000000D+00      0.000000D+00
   yy         0.253742D+01      0.376008D+00      0.418365D+00
   zx         0.000000D+00      0.000000D+00      0.000000D+00
   zy         0.000000D+00      0.000000D+00      0.000000D+00
   zz         0.253742D+01      0.376008D+00      0.418365D+00

 ----------------------------------------------------------------------

 Dipole orientation:
     1          0.00000000          0.00000000         -0.00000000
     1          0.00000000          0.00000000          2.83458919
     9         -0.00000000         -0.00000000         -1.32280829

 Electric dipole moment (dipole orientation):
 (Debye = 10**-18 statcoulomb cm , SI units = C m)
                  (au)            (Debye)         (10**-30 SI)
   Tot        0.646044D+00      0.164208D+01      0.547739D+01
   x          0.000000D+00      0.000000D+00      0.000000D+00
   y          0.000000D+00      0.000000D+00      0.000000D+00
   z          0.646044D+00      0.164208D+01      0.547739D+01

 Dipole polarizability, Alpha (dipole orientation).
 (esu units = cm**3 , SI units = C**2 m**2 J**-1)
 Alpha(0;0):
               (au)            (10**-24 esu)      (10**-40 SI)
   iso        0.413807D+01      0.613199D+00      0.682276D+00
   aniso      0.480195D+01      0.711575D+00      0.791734D+00
   xx         0.253742D+01      0.376008D+00      0.418365D+00
   yx         0.000000D+00      0.000000D+00      0.000000D+00
   yy         0.253742D+01      0.376008D+00      0.418365D+00
   zx         0.000000D+00      0.000000D+00      0.000000D+00
   zy         0.000000D+00      0.000000D+00      0.000000D+00
   zz         0.733937D+01      0.108758D+01      0.121010D+01

 ----------------------------------------------------------------------
 Unable to Open any file for archive entry.
 1\1\GINC-DESKTOP-B3RIHJD\Freq\UB3LYP\6-311G(d,p)\F1H2(2)\GARYX\22-Aug-
 2025\0\\# sp b3lyp/6-311g** Force nosymm scf=(qc)\\Title Card Required
 \\0,2\H,0.,0.,0.\H,-1.5,0.,0.\F,0.7,0.,0.\\Version=ES64L-G16RevC.01\HF
 =-100.8691904\S2=0.75019\S2-1=0.\S2A=0.75\RMSD=2.617e-10\RMSF=2.959e-0
 1\ZeroPoint=0.0225005\Thermal=0.0249326\ETot=-100.8442578\HTot=-100.84
 33136\GTot=-100.8655456\Dipole=-0.6460438,0.,0.\DipoleDeriv=0.3753909,
 0.,0.,0.,0.4118826,0.,0.,0.,0.4118826,0.0574198,0.,0.,0.,0.0243432,0.,
 0.,0.,0.0243432,-0.4328108,0.,0.,0.,-0.4362258,0.,0.,0.,-0.4362258\Pol
 ar=7.3393704,0.,2.5374247,0.,0.,2.5374247\Quadrupole=-0.2506029,0.1253
 014,0.1253014,0.,0.,0.\PG=C*V [C*(H1H1F1)]\NImag=2\\2.96853494,0.,-0.4
 8081261,0.,0.,-0.48081261,-0.00837881,0.,0.,0.02469906,0.,0.00356238,0
 .,0.,-0.00416134,0.,0.,0.00356238,0.,0.,-0.00416134,-2.96015613,0.,0.,
 -0.01632025,0.,0.,2.97647638,0.,0.47725023,0.,0.,0.00059895,0.,0.,-0.4
 7784918,0.,0.,0.47725023,0.,0.,0.00059895,0.,0.,-0.47784918\\0.6212098
 0,0.,0.,0.01258710,0.,0.,-0.63379690,0.,0.\\\@
 The archive entry for this job was punched.


 MODELS ARE TO BE USED, NOT BELIEVED.

    -- PARAPHRASED BY H. THIEL IN "PRINCIPLES OF ECONOMETRICS"
 Job cpu time:       0 days  0 hours  0 minutes 14.1 seconds.
 Elapsed time:       0 days  0 hours  0 minutes  2.0 seconds.
 File lengths (MBytes):  RWF=      6 Int=      0 D2E=      0 Chk=      1 Scr=      1
 Normal termination of Gaussian 16 at Fri Aug 22 15:46:04 2025.
