 Entering Gaussian System, Link 0=g16
 Initial command:
 /home/garyx/gaussian/g16/l1.exe "/tmp/gaussian_scratch/Gau-727250.inp" -scrdir="/tmp/gaussian_scratch/"
 Entering Link 1 = /home/garyx/gaussian/g16/l1.exe PID=    727252.
  
 Copyright (c) 1988-2019, Gaussian, Inc.  All Rights Reserved.
  
 This is part of the Gaussian(R) 16 program.  It is based on
 the Gaussian(R) 09 system (copyright 2009, Gaussian, Inc.),
 the Gaussian(R) 03 system (copyright 2003, Gaussian, Inc.),
 the Gaussian(R) 98 system (copyright 1998, Gaussian, Inc.),
 the Gaussian(R) 94 system (copyright 1995, Gaussian, Inc.),
 the Gaussian 92(TM) system (copyright 1992, Gaussian, Inc.),
 the Gaussian 90(TM) system (copyright 1990, Gaussian, Inc.),
 the Gaussian 88(TM) system (copyright 1988, Gaussian, Inc.),
 the Gaussian 86(TM) system (copyright 1986, Carnegie Mellon
 University), and the Gaussian 82(TM) system (copyright 1983,
 Carnegie Mellon University). Gaussian is a federally registered
 trademark of Gaussian, Inc.
  
 This software contains proprietary and confidential information,
 including trade secrets, belonging to Gaussian, Inc.
  
 This software is provided under written license and may be
 used, copied, transmitted, or stored only in accord with that
 written license.
  
 The following legend is applicable only to US Government
 contracts under FAR:
  
                    RESTRICTED RIGHTS LEGEND
  
 Use, reproduction and disclosure by the US Government is
 subject to restrictions as set forth in subparagraphs (a)
 and (c) of the Commercial Computer Software - Restricted
 Rights clause in FAR 52.227-19.
  
 Gaussian, Inc.
 340 Quinnipiac St., Bldg. 40, Wallingford CT 06492
  
  
 ---------------------------------------------------------------
 Warning -- This program may not be used in any manner that
 competes with the business of Gaussian, Inc. or will provide
 assistance to any competitor of Gaussian, Inc.  The licensee
 of this program is prohibited from giving any competitor of
 Gaussian, Inc. access to this program.  By using this program,
 the user acknowledges that Gaussian, Inc. is engaged in the
 business of creating and licensing software in the field of
 computational chemistry and represents and warrants to the
 licensee that it is not a competitor of Gaussian, Inc. and that
 it will not use this program in any manner prohibited above.
 ---------------------------------------------------------------
  

 Cite this work as:
 Gaussian 16, Revision C.01,
 M. J. Frisch, G. W. Trucks, H. B. Schlegel, G. E. Scuseria, 
 M. A. Robb, J. R. Cheeseman, G. Scalmani, V. Barone, 
 G. A. Petersson, H. Nakatsuji, X. Li, M. Caricato, A. V. Marenich, 
 J. Bloino, B. G. Janesko, R. Gomperts, B. Mennucci, H. P. Hratchian, 
 J. V. Ortiz, A. F. Izmaylov, J. L. Sonnenberg, D. Williams-Young, 
 F. Ding, F. Lipparini, F. Egidi, J. Goings, B. Peng, A. Petrone, 
 T. Henderson, D. Ranasinghe, V. G. Zakrzewski, J. Gao, N. Rega, 
 G. Zheng, W. Liang, M. Hada, M. Ehara, K. Toyota, R. Fukuda, 
 J. Hasegawa, M. Ishida, T. Nakajima, Y. Honda, O. Kitao, H. Nakai, 
 T. Vreven, K. Throssell, J. A. Montgomery, Jr., J. E. Peralta, 
 F. Ogliaro, M. J. Bearpark, J. J. Heyd, E. N. Brothers, K. N. Kudin, 
 V. N. Staroverov, T. A. Keith, R. Kobayashi, J. Normand, 
 K. Raghavachari, A. P. Rendell, J. C. Burant, S. S. Iyengar, 
 J. Tomasi, M. Cossi, J. M. Millam, M. Klene, C. Adamo, R. Cammi, 
 J. W. Ochterski, R. L. Martin, K. Morokuma, O. Farkas, 
 J. B. Foresman, and D. J. Fox, Gaussian, Inc., Wallingford CT, 2019.
 
 ******************************************
 Gaussian 16:  ES64L-G16RevC.01  3-Jul-2019
                22-Aug-2025 
 ******************************************
 %mem=10GB
 %nprocs=8
 Will use up to    8 processors via shared memory.
 -----------------------------------------
 # sp b3lyp/6-311g** Force nosymm scf=(qc)
 -----------------------------------------
 1/10=4,30=1,38=1/1,3;
 2/12=2,15=1,17=6,18=5,40=1/2;
 3/5=4,6=6,7=101,11=2,25=1,30=1,71=2,74=-5,140=1/1,2,3;
 4//1;
 5/5=2,8=3,38=5,98=1/8;
 8/6=4,10=90,11=11/1;
 11/6=1,8=1,9=11,15=111,16=1,31=1/1,2,10;
 10/6=1,31=1/2;
 6/7=2,8=2,9=2,10=2,28=1/1;
 7/8=1,10=1,25=1,30=1/1,2,3,16;
 1/10=4,30=1/3;
 99//99;
 -------------------
 Title Card Required
 -------------------
 Symbolic Z-matrix:
 Charge =  0 Multiplicity = 2
 H                     0.        0.        0. 
 H                    -3.55      0.        0. 
 F                     2.85      0.        0. 
 

 GradGradGradGradGradGradGradGradGradGradGradGradGradGradGradGradGradGrad
 Berny optimization.
 Initialization pass.
 Trust Radius=3.00D-01 FncErr=1.00D-07 GrdErr=1.00D-07 EigMax=2.50D+02 EigMin=1.00D-04
 Number of steps in this run=      2 maximum allowed number of steps=      2.
 GradGradGradGradGradGradGradGradGradGradGradGradGradGradGradGradGradGrad

                          Input orientation:                          
 ---------------------------------------------------------------------
 Center     Atomic      Atomic             Coordinates (Angstroms)
 Number     Number       Type             X           Y           Z
 ---------------------------------------------------------------------
      1          1           0        0.000000    0.000000    0.000000
      2          1           0       -3.550000    0.000000    0.000000
      3          9           0        2.850000    0.000000    0.000000
 ---------------------------------------------------------------------
                    Distance matrix (angstroms):
                    1          2          3
     1  H    0.000000
     2  H    3.550000   0.000000
     3  F    2.850000   6.400000   0.000000
 Symmetry turned off by external request.
 Stoichiometry    FH2(2)
 Framework group  C*V[C*(HHF)]
 Deg. of freedom     2
 Full point group                 C*V     NOp   4
 Rotational constants (GHZ):           0.0000000          11.1486596          11.1486596
 Standard basis: 6-311G(d,p) (5D, 7F)
    30 basis functions,    48 primitive gaussians,    31 cartesian basis functions
     6 alpha electrons        5 beta electrons
       nuclear repulsion energy         2.5643053852 Hartrees.
 NAtoms=    3 NActive=    3 NUniq=    3 SFac= 1.00D+00 NAtFMM=   60 NAOKFM=F Big=F
 Integral buffers will be    131072 words long.
 Raffenetti 2 integral format.
 Two-electron integral symmetry is turned off.
 One-electron integrals computed using PRISM.
 NBasis=    30 RedAO= T EigKep=  8.89D-02  NBF=    30
 NBsUse=    30 1.00D-06 EigRej= -1.00D+00 NBFU=    30
 ExpMin= 1.03D-01 ExpMax= 1.14D+04 ExpMxC= 1.72D+03 IAcc=3 IRadAn=         5 AccDes= 0.00D+00
 Harris functional with IExCor=  402 and IRadAn=       5 diagonalized for initial guess.
 HarFok:  IExCor=  402 AccDes= 0.00D+00 IRadAn=         5 IDoV= 1 UseB2=F ITyADJ=14
 ICtDFT=  3500011 ScaDFX=  1.000000  1.000000  1.000000  1.000000
 FoFCou: FMM=F IPFlag=           0 FMFlag=      100000 FMFlg1=           0
         NFxFlg=           0 DoJE=T BraDBF=F KetDBF=T FulRan=T
         wScrn=  0.000000 ICntrl=       500 IOpCl=  0 I1Cent=   200000004 NGrid=           0
         NMat0=    1 NMatS0=      1 NMatT0=    0 NMatD0=    1 NMtDS0=    0 NMtDT0=    0
 Symmetry not used in FoFCou.
 Initial guess <Sx>= 0.0000 <Sy>= 0.0000 <Sz>= 0.5000 <S**2>= 0.7500 S= 0.5000
 Keep R1 and R2 ints in memory in canonical form, NReq=7127049.
 Gradient too large for Newton-Raphson -- use scaled steepest descent instead.
  Beta Gap=    -0.481 HL deriv= 1.66D-14 Rot set to   7.20D-01
     Minimum is close to point  3 DX=  1.44D-02 DF= -2.15D-04 DXR=  3.47D-02 DFR=  1.50D-03 which will be used.
 Gradient too large for Newton-Raphson -- use scaled steepest descent instead.
 Gradient too large for Newton-Raphson -- use scaled steepest descent instead.
     Accept linear search using points  1 and  2.
 Gradient too large for Newton-Raphson -- use scaled steepest descent instead.
     Accept linear search using points  2 and  3.
 Gradient too large for Newton-Raphson -- use scaled steepest descent instead.
     Accept linear search using points  1 and  2.
 Gradient too large for Newton-Raphson -- use scaled steepest descent instead.
     Minimum is close to point  3 DX=  1.70D-02 DF= -3.05D-05 DXR=  4.08D-02 DFR=  1.67D-03 which will be used.
 Gradient too large for Newton-Raphson -- use scaled steepest descent instead.
 Gradient too large for Newton-Raphson -- use scaled steepest descent instead.
     Accept linear search using points  1 and  2.
 Gradient too large for Newton-Raphson -- use scaled steepest descent instead.
 Gradient too large for Newton-Raphson -- use scaled steepest descent instead.
     Accept linear search using points  1 and  2.
 Gradient too large for Newton-Raphson -- use scaled steepest descent instead.
     Accept linear search using points  3 and  4.
     Minimum is close to point  4 DX= -1.12D-01 DF= -1.81D-05 DXR=  7.56D-02 DFR=  3.15D-03 which will be used.
 Gradient too large for Newton-Raphson -- use scaled steepest descent instead.
 LinEq1:  Iter=  0 NonCon=     1 RMS=1.26D-03 Max=1.44D-02 NDo=     1
 AX will form     1 AO Fock derivatives at one time.
 LinEq1:  Iter=  1 NonCon=     1 RMS=4.17D-04 Max=5.37D-03 NDo=     1
 LinEq1:  Iter=  2 NonCon=     1 RMS=2.01D-04 Max=1.57D-03 NDo=     1
 LinEq1:  Iter=  3 NonCon=     1 RMS=7.10D-05 Max=6.46D-04 NDo=     1
 LinEq1:  Iter=  4 NonCon=     1 RMS=9.60D-06 Max=9.41D-05 NDo=     1
 LinEq1:  Iter=  5 NonCon=     1 RMS=1.45D-06 Max=1.23D-05 NDo=     1
 LinEq1:  Iter=  6 NonCon=     1 RMS=3.57D-07 Max=3.15D-06 NDo=     1
 LinEq1:  Iter=  7 NonCon=     1 RMS=3.56D-08 Max=2.20D-07 NDo=     1
 LinEq1:  Iter=  8 NonCon=     1 RMS=8.41D-09 Max=1.25D-07 NDo=     1
 LinEq1:  Iter=  9 NonCon=     1 RMS=2.43D-09 Max=1.56D-08 NDo=     1
 LinEq1:  Iter= 10 NonCon=     0 RMS=3.42D-10 Max=1.80D-09 NDo=     1
 Linear equations converged to 1.640D-09 1.640D-08 after    10 iterations.
     Accept linear search using points  1 and  2.
 Gradient too large for Newton-Raphson -- use scaled steepest descent instead.
     Accept linear search using points  1 and  2.
     Minimum is close to point  2 DX= -7.63D-02 DF= -1.14D-06 DXR=  7.45D-02 DFR=  6.50D-03 which will be used.
 LinEq1:  Iter=  0 NonCon=     1 RMS=8.27D-04 Max=1.03D-02 NDo=     1
 LinEq1:  Iter=  1 NonCon=     1 RMS=8.28D-04 Max=1.11D-02 NDo=     1
 LinEq1:  Iter=  2 NonCon=     1 RMS=8.78D-05 Max=7.60D-04 NDo=     1
 LinEq1:  Iter=  3 NonCon=     1 RMS=1.19D-05 Max=6.85D-05 NDo=     1
 LinEq1:  Iter=  4 NonCon=     1 RMS=1.60D-06 Max=9.56D-06 NDo=     1
 LinEq1:  Iter=  5 NonCon=     1 RMS=2.36D-07 Max=2.29D-06 NDo=     1
 LinEq1:  Iter=  6 NonCon=     1 RMS=5.53D-08 Max=4.18D-07 NDo=     1
 LinEq1:  Iter=  7 NonCon=     1 RMS=1.19D-08 Max=1.69D-07 NDo=     1
 LinEq1:  Iter=  8 NonCon=     1 RMS=4.28D-09 Max=3.13D-08 NDo=     1
 LinEq1:  Iter=  9 NonCon=     0 RMS=5.34D-10 Max=2.46D-09 NDo=     1
 Linear equations converged to 1.640D-09 1.640D-08 after     9 iterations.
 Gradient too large for Newton-Raphson -- use scaled steepest descent instead.
 LinEq1:  Iter=  0 NonCon=     1 RMS=2.45D-04 Max=2.98D-03 NDo=     1
 LinEq1:  Iter=  1 NonCon=     1 RMS=2.56D-04 Max=2.85D-03 NDo=     1
 LinEq1:  Iter=  2 NonCon=     1 RMS=2.71D-05 Max=2.42D-04 NDo=     1
 LinEq1:  Iter=  3 NonCon=     1 RMS=4.52D-06 Max=2.93D-05 NDo=     1
 LinEq1:  Iter=  4 NonCon=     1 RMS=7.28D-07 Max=7.33D-06 NDo=     1
 LinEq1:  Iter=  5 NonCon=     1 RMS=1.17D-07 Max=8.81D-07 NDo=     1
 LinEq1:  Iter=  6 NonCon=     1 RMS=1.46D-08 Max=1.02D-07 NDo=     1
 LinEq1:  Iter=  7 NonCon=     1 RMS=1.47D-09 Max=1.67D-08 NDo=     1
 LinEq1:  Iter=  8 NonCon=     0 RMS=5.99D-10 Max=6.93D-09 NDo=     1
 Linear equations converged to 1.640D-09 1.640D-08 after     8 iterations.
     Accept linear search using points  1 and  2.
 LinEq1:  Iter=  0 NonCon=     1 RMS=2.07D-04 Max=3.02D-03 NDo=     1
 LinEq1:  Iter=  1 NonCon=     1 RMS=8.64D-05 Max=7.51D-04 NDo=     1
 LinEq1:  Iter=  2 NonCon=     1 RMS=4.66D-05 Max=6.80D-04 NDo=     1
 LinEq1:  Iter=  3 NonCon=     1 RMS=1.11D-05 Max=9.43D-05 NDo=     1
 LinEq1:  Iter=  4 NonCon=     1 RMS=9.13D-07 Max=6.66D-06 NDo=     1
 LinEq1:  Iter=  5 NonCon=     1 RMS=2.01D-07 Max=2.07D-06 NDo=     1
 LinEq1:  Iter=  6 NonCon=     1 RMS=2.01D-08 Max=1.49D-07 NDo=     1
 LinEq1:  Iter=  7 NonCon=     1 RMS=3.61D-09 Max=3.04D-08 NDo=     1
 LinEq1:  Iter=  8 NonCon=     0 RMS=3.76D-10 Max=2.40D-09 NDo=     1
 Linear equations converged to 1.640D-09 1.640D-08 after     8 iterations.
     Minimum is close to point  2 DX=  5.32D-02 DF= -2.10D-08 DXR=  5.05D-02 DFR=  2.56D-03 which will be used.
 LinEq1:  Iter=  0 NonCon=     1 RMS=3.82D-06 Max=5.17D-05 NDo=     1
 LinEq1:  Iter=  1 NonCon=     1 RMS=2.70D-06 Max=3.33D-05 NDo=     1
 LinEq1:  Iter=  2 NonCon=     1 RMS=1.59D-06 Max=1.16D-05 NDo=     1
 LinEq1:  Iter=  3 NonCon=     1 RMS=2.29D-07 Max=2.16D-06 NDo=     1
 LinEq1:  Iter=  4 NonCon=     1 RMS=2.54D-08 Max=3.31D-07 NDo=     1
 LinEq1:  Iter=  5 NonCon=     1 RMS=2.62D-09 Max=1.96D-08 NDo=     1
 LinEq1:  Iter=  6 NonCon=     0 RMS=4.63D-10 Max=4.57D-09 NDo=     1
 Linear equations converged to 7.651D-10 7.651D-09 after     6 iterations.
 LinEq1:  Iter=  0 NonCon=     1 RMS=6.83D-08 Max=9.40D-07 NDo=     1
 LinEq1:  Iter=  1 NonCon=     1 RMS=3.36D-08 Max=3.04D-07 NDo=     1
 LinEq1:  Iter=  2 NonCon=     1 RMS=1.51D-08 Max=1.89D-07 NDo=     1
 LinEq1:  Iter=  3 NonCon=     1 RMS=8.29D-09 Max=8.10D-08 NDo=     1
 LinEq1:  Iter=  4 NonCon=     1 RMS=1.60D-09 Max=1.30D-08 NDo=     1
 LinEq1:  Iter=  5 NonCon=     1 RMS=1.04D-10 Max=8.43D-10 NDo=     1
 LinEq1:  Iter=  6 NonCon=     0 RMS=1.20D-11 Max=6.44D-11 NDo=     1
 Linear equations converged to 1.454D-11 1.454D-10 after     6 iterations.
 SCF Done:  E(UB3LYP) =  -100.762261432     a.u. after   21 cycles
            Convg  =    0.2002D-07                    98 Fock formations.
              S**2 =  1.6785                  -V/T =  2.0016
 <Sx>= 0.0000 <Sy>= 0.0000 <Sz>= 0.5000 <S**2>= 1.6785 S= 0.8887
 <L.S>=  0.00000000000    
 Annihilation of the first spin contaminant:
 S**2 before annihilation     1.6785,   after     0.7525
 DoSCS=F DFT=T ScalE2(SS,OS)=  1.000000  1.000000
 Range of M.O.s used for correlation:     1    30
 NBasis=    30 NAE=     6 NBE=     5 NFC=     0 NFV=     0
 NROrb=     30 NOA=     6 NOB=     5 NVA=    24 NVB=    25

 **** Warning!!: The smallest beta delta epsilon is  0.97044557D-01

 Symmetrizing basis deriv contribution to polar:
 IMax=3 JMax=2 DiffMx= 0.00D+00
 G2DrvN: will do     4 centers at a time, making    1 passes.
 Calling FoFCou, ICntrl=  3107 FMM=F I1Cent=   0 AccDes= 0.00D+00.
 End of G2Drv F.D. properties file   721 does not exist.
 End of G2Drv F.D. properties file   722 does not exist.
 End of G2Drv F.D. properties file   788 does not exist.
          IDoAtm=111
          Differentiating once with respect to electric field.
                with respect to dipole field.
          Differentiating once with respect to nuclear coordinates.
 Keep R1 and R2 ints in memory in canonical form, NReq=7101526.
          There are    12 degrees of freedom in the 1st order CPHF.  IDoFFX=6 NUNeed=     3.
      9 vectors produced by pass  0 Test12= 2.24D-15 8.33D-09 XBig12= 1.66D+02 1.28D+01.
 AX will form     9 AO Fock derivatives at one time.
      9 vectors produced by pass  1 Test12= 2.24D-15 8.33D-09 XBig12= 5.27D+00 8.46D-01.
      9 vectors produced by pass  2 Test12= 2.24D-15 8.33D-09 XBig12= 6.84D-01 5.76D-01.
      7 vectors produced by pass  3 Test12= 2.24D-15 8.33D-09 XBig12= 2.33D-03 1.90D-02.
      6 vectors produced by pass  4 Test12= 2.24D-15 8.33D-09 XBig12= 1.88D-05 1.60D-03.
      4 vectors produced by pass  5 Test12= 2.24D-15 8.33D-09 XBig12= 5.84D-08 8.19D-05.
      1 vectors produced by pass  6 Test12= 2.24D-15 8.33D-09 XBig12= 8.99D-11 5.16D-06.
      1 vectors produced by pass  7 Test12= 2.24D-15 8.33D-09 XBig12= 1.18D-13 1.80D-07.
 InvSVY:  IOpt=1 It=  1 EMax= 2.21D-15
 Solved reduced A of dimension    46 with     9 vectors.
 Isotropic polarizability for W=    0.000000       12.07 Bohr**3.
 End of Minotr F.D. properties file   721 does not exist.
 End of Minotr F.D. properties file   722 does not exist.
 End of Minotr F.D. properties file   788 does not exist.

 **********************************************************************

            Population analysis using the SCF Density.

 **********************************************************************

 Alpha  occ. eigenvalues --  -24.73495  -1.19598  -0.52613  -0.44181  -0.44181
 Alpha  occ. eigenvalues --   -0.32619
 Alpha virt. eigenvalues --   -0.08645   0.23862   0.35929   0.89782   0.92626
 Alpha virt. eigenvalues --    0.92626   1.04769   1.24887   1.24887   1.25023
 Alpha virt. eigenvalues --    1.43291   1.43291   1.43900   2.14665   2.39272
 Alpha virt. eigenvalues --    3.67766   3.69796   3.69796   3.76500   3.76501
 Alpha virt. eigenvalues --    5.89905   5.95948   5.95948  66.49700
  Beta  occ. eigenvalues --  -24.70510  -1.11056  -0.41195  -0.41195  -0.34136
  Beta virt. eigenvalues --   -0.24432  -0.06534   0.23946   0.37927   0.94073
  Beta virt. eigenvalues --    0.94073   0.98163   1.08276   1.23180   1.23180
  Beta virt. eigenvalues --    1.24344   1.45888   1.46145   1.46145   2.14470
  Beta virt. eigenvalues --    2.41693   3.78046   3.78047   3.79080   3.79080
  Beta virt. eigenvalues --    3.80953   5.98479   5.98479   6.03256  66.52667
          Condensed to atoms (all electrons):
               1          2          3
     1  H    0.940789   0.001354   0.008774
     2  H    0.001354   0.998152  -0.000000
     3  F    0.008774  -0.000000   9.040804
          Atomic-Atomic Spin Densities.
               1          2          3
     1  H   -0.938783   0.000316  -0.005120
     2  H    0.000316   0.997867  -0.000000
     3  F   -0.005120  -0.000000   0.950525
 Mulliken charges and spin densities:
               1          2
     1  H    0.049083  -0.943588
     2  H    0.000494   0.998183
     3  F   -0.049578   0.945404
 Sum of Mulliken charges =  -0.00000   1.00000
 Mulliken charges and spin densities with hydrogens summed into heavy atoms:
               1          2
     3  F   -0.000000   1.000000
 APT charges:
               1
     1  H   -0.039807
     2  H   -0.000442
     3  F    0.040249
 Sum of APT charges =  -0.00000
 APT charges with hydrogens summed into heavy atoms:
               1
     3  F   -0.000000
 Electronic spatial extent (au):  <R**2>=            323.7681
 Charge=             -0.0000 electrons
 Dipole moment (field-independent basis, Debye):
    X=             -0.7331    Y=              0.0000    Z=             -0.0000  Tot=              0.7331
 Quadrupole moment (field-independent basis, Debye-Ang):
   XX=             -8.6188   YY=             -7.6009   ZZ=             -7.6009
   XY=              0.0000   XZ=             -0.0000   YZ=              0.0000
 Traceless Quadrupole moment (field-independent basis, Debye-Ang):
   XX=             -0.6786   YY=              0.3393   ZZ=              0.3393
   XY=              0.0000   XZ=             -0.0000   YZ=              0.0000
 Octapole moment (field-independent basis, Debye-Ang**2):
  XXX=            -25.6192  YYY=             -0.0000  ZZZ=              0.0000  XYY=             -9.0178
  XXY=              0.0000  XXZ=             -0.0000  XZZ=             -9.0178  YZZ=             -0.0000
  YYZ=              0.0000  XYZ=              0.0000
 Hexadecapole moment (field-independent basis, Debye-Ang**3):
 XXXX=           -322.1763 YYYY=             -6.2739 ZZZZ=             -6.2739 XXXY=              0.0000
 XXXZ=             -0.0000 YYYX=              0.0000 YYYZ=             -0.0000 ZZZX=             -0.0000
 ZZZY=             -0.0000 XXYY=            -59.2399 XXZZ=            -59.2399 YYZZ=             -2.0913
 XXYZ=              0.0000 YYXZ=             -0.0000 ZZXY=              0.0000
 N-N= 2.564305385153D+00 E-N=-2.462191671899D+02  KE= 1.006008221730D+02
  Exact polarizability:      32.175       0.000       2.024      -0.000       0.000       2.024
 Approx polarizability:      35.272       0.000       1.924      -0.000       0.000       1.924
                          Isotropic Fermi Contact Couplings
        Atom                 a.u.       MegaHertz       Gauss      10(-4) cm-1
     1  H(1)              -0.28276   -1263.91202    -450.99524    -421.59567
     2  H(1)               0.29647    1325.20090     472.86463     442.03944
     3  F(19)              0.02540     106.88489      38.13919      35.65296
 --------------------------------------------------------
       Center         ----  Spin Dipole Couplings  ----
                      3XX-RR        3YY-RR        3ZZ-RR
 --------------------------------------------------------
     1   Atom        0.019643     -0.009822     -0.009822
     2   Atom       -0.005087      0.002543      0.002543
     3   Atom        5.968895     -2.984447     -2.984447
 --------------------------------------------------------
                        XY            XZ            YZ
 --------------------------------------------------------
     1   Atom       -0.000000      0.000000     -0.000000
     2   Atom       -0.000000      0.000000     -0.000000
     3   Atom        0.000000     -0.000001      0.000000
 --------------------------------------------------------


 ---------------------------------------------------------------------------------
              Anisotropic Spin Dipole Couplings in Principal Axis System
 ---------------------------------------------------------------------------------

       Atom             a.u.   MegaHertz   Gauss  10(-4) cm-1        Axes

              Baa    -0.0098    -5.240    -1.870    -1.748  0.0000  0.9963  0.0854
     1 H(1)   Bbb    -0.0098    -5.240    -1.870    -1.748 -0.0000 -0.0854  0.9963
              Bcc     0.0196    10.481     3.740     3.496  1.0000 -0.0000  0.0000
 
              Baa    -0.0051    -2.714    -0.968    -0.905  1.0000  0.0000 -0.0000
     2 H(1)   Bbb     0.0025     1.357     0.484     0.453  0.0000  0.9952  0.0976
              Bcc     0.0025     1.357     0.484     0.453  0.0000 -0.0976  0.9952
 
              Baa    -2.9844 -1498.866  -534.833  -499.968  0.0000 -0.0994  0.9950
     3 F(19)  Bbb    -2.9844 -1498.866  -534.833  -499.968 -0.0000  0.9950  0.0994
              Bcc     5.9689  2997.732  1069.665   999.936  1.0000  0.0000 -0.0000
 

 ---------------------------------------------------------------------------------

 Calling FoFJK, ICntrl=    100127 FMM=F ISym2X=0 I1Cent= 0 IOpClX= 1 NMat=1 NMatS=1 NMatT=0.
 Full mass-weighted force constant matrix:
 Low frequencies --- -435.0164 -113.1132    0.0020    0.0022    0.0027   39.8139
 Low frequencies ---   39.8139  167.7767  167.7767
 ******    2 imaginary frequencies (negative Signs) ****** 
 Diagonal vibrational polarizability:
        8.0583023       2.4845084       2.4845082
 Harmonic frequencies (cm**-1), IR intensities (KM/Mole), Raman scattering
 activities (A**4/AMU), depolarization ratios for plane and unpolarized
 incident light, reduced masses (AMU), force constants (mDyne/A),
 and normal coordinates:
                      1                      2                      3
                      A                      A                      A
 Frequencies --   -435.0164              -113.1132               157.2809
 Red. masses --      1.0505                 1.0611                 1.0208
 Frc consts  --      0.1171                 0.0080                 0.0149
 IR Inten    --     50.7312                 0.4012                 2.2838
  Atom  AN      X      Y      Z        X      Y      Z        X      Y      Z
     1   1     1.00   0.00   0.00     0.03   0.00  -0.00    -0.00   0.90   0.13
     2   1    -0.08  -0.00  -0.00     1.00  -0.00   0.00     0.00  -0.40  -0.06
     3   9    -0.05  -0.00  -0.00    -0.05  -0.00   0.00     0.00  -0.03  -0.00
                      4
                      A
 Frequencies --    157.2809
 Red. masses --      1.0208
 Frc consts  --      0.0149
 IR Inten    --      2.2838
  Atom  AN      X      Y      Z
     1   1    -0.00  -0.13   0.90
     2   1     0.00   0.06  -0.40
     3   9     0.00   0.00  -0.03

 -------------------
 - Thermochemistry -
 -------------------
 Temperature   298.150 Kelvin.  Pressure   1.00000 Atm.
 Atom     1 has atomic number  1 and mass   1.00783
 Atom     2 has atomic number  1 and mass   1.00783
 Atom     3 has atomic number  9 and mass  18.99840
 Molecular mass:    21.01405 amu.
 Principal axes and moments of inertia in atomic units:
                           1         2         3
     Eigenvalues --     0.00000 161.87966 161.87966
           X            1.00000  -0.00000   0.00000
           Y            0.00000   1.00000   0.00000
           Z            0.00000   0.00000   1.00000
 This molecule is a prolate symmetric top.
 Rotational symmetry number  1.
 Rotational temperature (Kelvin)      0.53505
 Rotational constant (GHZ):          11.148660
    2 imaginary frequencies ignored.
 Zero-point vibrational energy       1881.5 (Joules/Mol)
                                    0.44969 (Kcal/Mol)
 Warning -- explicit consideration of   2 degrees of freedom as
           vibrations may cause significant error
 Vibrational temperatures:    226.29   226.29
          (Kelvin)
 
 Zero-point correction=                           0.000717 (Hartree/Particle)
 Thermal correction to Energy=                    0.004339
 Thermal correction to Enthalpy=                  0.005283
 Thermal correction to Gibbs Free Energy=        -0.021402
 Sum of electronic and zero-point Energies=           -100.761545
 Sum of electronic and thermal Energies=              -100.757923
 Sum of electronic and thermal Enthalpies=            -100.756979
 Sum of electronic and thermal Free Energies=         -100.783663
 
                     E (Thermal)             CV                S
                      KCal/Mol        Cal/Mol-Kelvin    Cal/Mol-Kelvin
 Total                    2.723              8.757             56.162
 Electronic               0.000              0.000              1.377
 Translational            0.889              2.981             35.068
 Rotational               0.592              1.987             14.552
 Vibrational              1.241              3.789              5.164
 Vibration     1          0.621              1.894              2.582
 Vibration     2          0.621              1.894              2.582
                       Q            Log10(Q)             Ln(Q)
 Total Bot       0.698344D+10          9.844069         22.666808
 Total V=0       0.149174D+11         10.173694         23.425795
 Vib (Bot)       0.165494D+01          0.218781          0.503763
 Vib (Bot)    1  0.128644D+01          0.109391          0.251881
 Vib (Bot)    2  0.128644D+01          0.109391          0.251881
 Vib (V=0)       0.353513D+01          0.548406          1.262751
 Vib (V=0)    1  0.188019D+01          0.274203          0.631375
 Vib (V=0)    2  0.188019D+01          0.274203          0.631375
 Electronic      0.200000D+01          0.301030          0.693147
 Translational   0.378633D+07          6.578219         15.146908
 Rotational      0.557236D+03          2.746039          6.322989
 -------------------------------------------------------------------
 Center     Atomic                   Forces (Hartrees/Bohr)
 Number     Number              X              Y              Z
 -------------------------------------------------------------------
      1        1           0.004716014   -0.000000000    0.000000000
      2        1           0.000412356    0.000000000    0.000000000
      3        9          -0.005128370    0.000000000   -0.000000000
 -------------------------------------------------------------------
 Cartesian Forces:  Max     0.005128370 RMS     0.002326442

 GradGradGradGradGradGradGradGradGradGradGradGradGradGradGradGradGradGrad
 Berny optimization.
 Search for a local minimum.
 Step number   1 out of a maximum of    2
 All quantities printed in internal units (Hartrees-Bohrs-Radians)
 Second derivative matrix not updated -- analytic derivatives used.
 The second derivative matrix:
                          X1        Y1        Z1        X2        Y2
           X1          -0.00687
           Y1          -0.00000   0.00102
           Z1          -0.00000  -0.00000   0.00102
           X2           0.00052   0.00000   0.00000  -0.00050
           Y2          -0.00000  -0.00006  -0.00000   0.00000   0.00006
           Z2           0.00000  -0.00000  -0.00006  -0.00000  -0.00000
           X3           0.00635   0.00000   0.00000  -0.00002  -0.00000
           Y3           0.00000  -0.00096   0.00000  -0.00000   0.00000
           Z3           0.00000   0.00000  -0.00096  -0.00000   0.00000
                          Z2        X3        Y3        Z3
           Z2           0.00006
           X3          -0.00000  -0.00633
           Y3           0.00000  -0.00000   0.00096
           Z3           0.00000  -0.00000  -0.00000   0.00096
 ITU=  0
     Eigenvalues ---   -0.01072  -0.00067   0.00120   0.00120
 Eigenvalue     1 is  -1.07D-02 should be greater than     0.000000 Eigenvector:
                          X1        X3        X2        Z1        Y1
   1                    0.93429  -0.34338   0.09585   0.00000   0.00000
                          Z2        Y2        Z3        Y3
   1                   -0.00000  -0.00000  -0.00000  -0.00000
 Eigenvalue     2 is  -6.75D-04 should be greater than     0.000000 Eigenvector:
                          X2        X3        X1        Z1        Z2
   1                    0.94863  -0.25280  -0.19023  -0.00000   0.00000
                          Z3        Y1        Y2        Y3
   1                    0.00000  -0.00000   0.00000   0.00000
 Quadratic step=1.306D+00 exceeds max=3.000D-01 adjusted using Lamda=-1.054D-02.
 Angle between NR and scaled steps=  50.12 degrees.
 Angle between quadratic step and forces=  27.00 degrees.
 Linear search not attempted -- first point.
 B after Tr=    -0.078713   -0.000000   -0.000000
         Rot=    0.993924    0.110070   -0.000000   -0.000000 Ang=  12.64 deg.
 Variable       Old X    -DE/DX   Delta X   Delta X   Delta X     New X
                                 (Linear)    (Quad)   (Total)
    X1        0.00000   0.00472   0.00000   0.25935   0.18064   0.18064
    Y1        0.00000  -0.00000   0.00000  -0.00000   0.00000   0.00000
    Z1        0.00000   0.00000   0.00000   0.00000   0.00000   0.00000
    X2       -6.70853   0.00041   0.00000   0.09486   0.01614  -6.69238
    Y2        0.00000   0.00000   0.00000   0.00000  -0.00000  -0.00000
    Z2        0.00000   0.00000   0.00000  -0.00000  -0.00000  -0.00000
    X3        5.38572  -0.00513   0.00000  -0.11807  -0.19678   5.18894
    Y3        0.00000   0.00000   0.00000   0.00000  -0.00000  -0.00000
    Z3        0.00000  -0.00000   0.00000  -0.00000  -0.00000  -0.00000
         Item               Value     Threshold  Converged?
 Maximum Force            0.005128     0.000450     NO 
 RMS     Force            0.002326     0.000300     NO 
 Maximum Displacement     0.196783     0.001800     NO 
 RMS     Displacement     0.089203     0.001200     NO 
 Predicted change in Energy=-2.326302D-03
 GradGradGradGradGradGradGradGradGradGradGradGradGradGradGradGradGradGrad


 ----------------------------------------------------------------------

 Electric dipole moment (input orientation):
 (Debye = 10**-18 statcoulomb cm , SI units = C m)
                  (au)            (Debye)         (10**-30 SI)
   Tot        0.288423D+00      0.733099D+00      0.244535D+01
   x         -0.288423D+00     -0.733099D+00     -0.244535D+01
   y          0.000000D+00      0.000000D+00      0.000000D+00
   z          0.000000D+00      0.000000D+00      0.000000D+00

 Dipole polarizability, Alpha (input orientation).
 (esu units = cm**3 , SI units = C**2 m**2 J**-1)
 Alpha(0;0):
               (au)            (10**-24 esu)      (10**-40 SI)
   iso        0.120745D+02      0.178925D+01      0.199081D+01
   aniso      0.301506D+02      0.446785D+01      0.497115D+01
   xx         0.321749D+02      0.476782D+01      0.530492D+01
   yx         0.000000D+00      0.000000D+00      0.000000D+00
   yy         0.202430D+01      0.299971D+00      0.333763D+00
   zx         0.000000D+00      0.000000D+00      0.000000D+00
   zy         0.000000D+00      0.000000D+00      0.000000D+00
   zz         0.202430D+01      0.299971D+00      0.333763D+00

 ----------------------------------------------------------------------

 Dipole orientation:
     1          0.00000000          0.00000000          0.00000000
     1          0.00000009         -0.00000001          6.70852774
     9         -0.00000007          0.00000001         -5.38571946

 Electric dipole moment (dipole orientation):
 (Debye = 10**-18 statcoulomb cm , SI units = C m)
                  (au)            (Debye)         (10**-30 SI)
   Tot        0.288423D+00      0.733099D+00      0.244535D+01
   x          0.000000D+00      0.000000D+00      0.000000D+00
   y          0.000000D+00      0.000000D+00      0.000000D+00
   z          0.288423D+00      0.733099D+00      0.244535D+01

 Dipole polarizability, Alpha (dipole orientation).
 (esu units = cm**3 , SI units = C**2 m**2 J**-1)
 Alpha(0;0):
               (au)            (10**-24 esu)      (10**-40 SI)
   iso        0.120745D+02      0.178925D+01      0.199081D+01
   aniso      0.301506D+02      0.446785D+01      0.497115D+01
   xx         0.202430D+01      0.299971D+00      0.333763D+00
   yx         0.000000D+00      0.000000D+00      0.000000D+00
   yy         0.202430D+01      0.299971D+00      0.333763D+00
   zx         0.000000D+00      0.000000D+00      0.000000D+00
   zy         0.000000D+00      0.000000D+00      0.000000D+00
   zz         0.321749D+02      0.476782D+01      0.530492D+01

 ----------------------------------------------------------------------
 Unable to Open any file for archive entry.
 1\1\GINC-DESKTOP-B3RIHJD\Freq\UB3LYP\6-311G(d,p)\F1H2(2)\GARYX\22-Aug-
 2025\0\\# sp b3lyp/6-311g** Force nosymm scf=(qc)\\Title Card Required
 \\0,2\H,0.,0.,0.\H,-3.55,0.,0.\F,2.85,0.,0.\\Version=ES64L-G16RevC.01\
 HF=-100.7622614\S2=1.678468\S2-1=0.\S2A=0.752502\RMSD=1.221e-09\RMSF=2
 .326e-03\Thermal=0.0043386\ETot=-100.7579228\HTot=-100.7569786\GTot=-1
 00.7836631\Dipole=-0.2884233,0.,0.\DipoleDeriv=-0.2239118,0.,0.,0.,0.0
 522454,0.,0.,0.,0.0522454,-0.0024405,0.,0.,0.,0.0005572,0.,0.,0.,0.000
 5572,0.2263523,0.,0.,0.,-0.0528027,0.,0.,0.,-0.0528027\Polar=32.174854
 1,0.,2.024304,0.,0.,2.024304\Quadrupole=-0.5045331,0.2522666,0.2522666
 ,0.,-0.0000001,0.\PG=C*V [C*(H1H1F1)]\NImag=2\\-0.00686655,0.,0.001022
 01,0.,0.,0.00102201,0.00052130,0.,0.,-0.00050330,0.,-0.00006115,0.,0.,
 0.00006108,0.,0.,-0.00006115,0.,0.,0.00006108,0.00634525,0.,0.,-0.0000
 1800,0.,0.,-0.00632725,0.,-0.00096085,0.,0.,0.00000008,0.,0.,0.0009607
 8,0.,0.,-0.00096085,0.,0.,0.00000008,0.,0.,0.00096078\\-0.00471601,0.,
 0.,-0.00041236,0.,0.,0.00512837,0.,0.\\\@
 The archive entry for this job was punched.


 PENOTUS DIED A HUNDRED YEARS OLD WANTING BUT TWO...
 AND HE USED TO SAY BEFORE HE DIED, HAVING SPENT HIS
 WHOLE LIFE IN VAINLY SEARCHING AFTER THE PHILOSOPHER'S
 STONE, THAT IF HE HAD A MORTAL ENEMY HE DID NOT DARE
 TO ENCOUNTER OPENLY, HE WOULD ADVISE HIM ABOVE ALL
 THINGS TO GIVE HIMSELF UP TO THE STUDY AND PRACTICE
 OF ALCHEMY.  --  NICOLAS LEMERY, M.D.
 "A COURSE OF CHYMISTRY", WALTER KETTILBY, LONDON, 1686
 Job cpu time:       0 days  0 hours  0 minutes 21.8 seconds.
 Elapsed time:       0 days  0 hours  0 minutes  3.0 seconds.
 File lengths (MBytes):  RWF=      6 Int=      0 D2E=      0 Chk=      1 Scr=      1
 Normal termination of Gaussian 16 at Fri Aug 22 18:54:59 2025.
