 Entering Gaussian System, Link 0=g16
 Initial command:
 /home/garyx/gaussian/g16/l1.exe "/tmp/gaussian_scratch/Gau-194020.inp" -scrdir="/tmp/gaussian_scratch/"
 Entering Link 1 = /home/garyx/gaussian/g16/l1.exe PID=    194022.
  
 Copyright (c) 1988-2019, Gaussian, Inc.  All Rights Reserved.
  
 This is part of the Gaussian(R) 16 program.  It is based on
 the Gaussian(R) 09 system (copyright 2009, Gaussian, Inc.),
 the Gaussian(R) 03 system (copyright 2003, Gaussian, Inc.),
 the Gaussian(R) 98 system (copyright 1998, Gaussian, Inc.),
 the Gaussian(R) 94 system (copyright 1995, Gaussian, Inc.),
 the Gaussian 92(TM) system (copyright 1992, Gaussian, Inc.),
 the Gaussian 90(TM) system (copyright 1990, Gaussian, Inc.),
 the Gaussian 88(TM) system (copyright 1988, Gaussian, Inc.),
 the Gaussian 86(TM) system (copyright 1986, Carnegie Mellon
 University), and the Gaussian 82(TM) system (copyright 1983,
 Carnegie Mellon University). Gaussian is a federally registered
 trademark of Gaussian, Inc.
  
 This software contains proprietary and confidential information,
 including trade secrets, belonging to Gaussian, Inc.
  
 This software is provided under written license and may be
 used, copied, transmitted, or stored only in accord with that
 written license.
  
 The following legend is applicable only to US Government
 contracts under FAR:
  
                    RESTRICTED RIGHTS LEGEND
  
 Use, reproduction and disclosure by the US Government is
 subject to restrictions as set forth in subparagraphs (a)
 and (c) of the Commercial Computer Software - Restricted
 Rights clause in FAR 52.227-19.
  
 Gaussian, Inc.
 340 Quinnipiac St., Bldg. 40, Wallingford CT 06492
  
  
 ---------------------------------------------------------------
 Warning -- This program may not be used in any manner that
 competes with the business of Gaussian, Inc. or will provide
 assistance to any competitor of Gaussian, Inc.  The licensee
 of this program is prohibited from giving any competitor of
 Gaussian, Inc. access to this program.  By using this program,
 the user acknowledges that Gaussian, Inc. is engaged in the
 business of creating and licensing software in the field of
 computational chemistry and represents and warrants to the
 licensee that it is not a competitor of Gaussian, Inc. and that
 it will not use this program in any manner prohibited above.
 ---------------------------------------------------------------
  

 Cite this work as:
 Gaussian 16, Revision C.01,
 M. J. Frisch, G. W. Trucks, H. B. Schlegel, G. E. Scuseria, 
 M. A. Robb, J. R. Cheeseman, G. Scalmani, V. Barone, 
 G. A. Petersson, H. Nakatsuji, X. Li, M. Caricato, A. V. Marenich, 
 J. Bloino, B. G. Janesko, R. Gomperts, B. Mennucci, H. P. Hratchian, 
 J. V. Ortiz, A. F. Izmaylov, J. L. Sonnenberg, D. Williams-Young, 
 F. Ding, F. Lipparini, F. Egidi, J. Goings, B. Peng, A. Petrone, 
 T. Henderson, D. Ranasinghe, V. G. Zakrzewski, J. Gao, N. Rega, 
 G. Zheng, W. Liang, M. Hada, M. Ehara, K. Toyota, R. Fukuda, 
 J. Hasegawa, M. Ishida, T. Nakajima, Y. Honda, O. Kitao, H. Nakai, 
 T. Vreven, K. Throssell, J. A. Montgomery, Jr., J. E. Peralta, 
 F. Ogliaro, M. J. Bearpark, J. J. Heyd, E. N. Brothers, K. N. Kudin, 
 V. N. Staroverov, T. A. Keith, R. Kobayashi, J. Normand, 
 K. Raghavachari, A. P. Rendell, J. C. Burant, S. S. Iyengar, 
 J. Tomasi, M. Cossi, J. M. Millam, M. Klene, C. Adamo, R. Cammi, 
 J. W. Ochterski, R. L. Martin, K. Morokuma, O. Farkas, 
 J. B. Foresman, and D. J. Fox, Gaussian, Inc., Wallingford CT, 2019.
 
 ******************************************
 Gaussian 16:  ES64L-G16RevC.01  3-Jul-2019
                22-Aug-2025 
 ******************************************
 %mem=10GB
 %nprocs=8
 Will use up to    8 processors via shared memory.
 -----------------------------------------
 # sp b3lyp/6-311g** Force nosymm scf=(qc)
 -----------------------------------------
 1/10=4,30=1,38=1/1,3;
 2/12=2,15=1,17=6,18=5,40=1/2;
 3/5=4,6=6,7=101,11=2,25=1,30=1,71=2,74=-5,140=1/1,2,3;
 4//1;
 5/5=2,8=3,38=5,98=1/8;
 8/6=4,10=90,11=11/1;
 11/6=1,8=1,9=11,15=111,16=1,31=1/1,2,10;
 10/6=1,31=1/2;
 6/7=2,8=2,9=2,10=2,28=1/1;
 7/8=1,10=1,25=1,30=1/1,2,3,16;
 1/10=4,30=1/3;
 99//99;
 -------------------
 Title Card Required
 -------------------
 Symbolic Z-matrix:
 Charge =  0 Multiplicity = 2
 H                     0.        0.        0. 
 H                    -2.9       0.        0. 
 F                     1.        0.        0. 
 

 GradGradGradGradGradGradGradGradGradGradGradGradGradGradGradGradGradGrad
 Berny optimization.
 Initialization pass.
 Trust Radius=3.00D-01 FncErr=1.00D-07 GrdErr=1.00D-07 EigMax=2.50D+02 EigMin=1.00D-04
 Number of steps in this run=      2 maximum allowed number of steps=      2.
 GradGradGradGradGradGradGradGradGradGradGradGradGradGradGradGradGradGrad

                          Input orientation:                          
 ---------------------------------------------------------------------
 Center     Atomic      Atomic             Coordinates (Angstroms)
 Number     Number       Type             X           Y           Z
 ---------------------------------------------------------------------
      1          1           0        0.000000    0.000000    0.000000
      2          1           0       -2.900000    0.000000    0.000000
      3          9           0        1.000000    0.000000    0.000000
 ---------------------------------------------------------------------
                    Distance matrix (angstroms):
                    1          2          3
     1  H    0.000000
     2  H    2.900000   0.000000
     3  F    1.000000   3.900000   0.000000
 Symmetry turned off by external request.
 Stoichiometry    FH2(2)
 Framework group  C*V[C*(HHF)]
 Deg. of freedom     2
 Full point group                 C*V     NOp   4
 Rotational constants (GHZ):           0.0000000          33.3004892          33.3004892
 Standard basis: 6-311G(d,p) (5D, 7F)
    30 basis functions,    48 primitive gaussians,    31 cartesian basis functions
     6 alpha electrons        5 beta electrons
       nuclear repulsion energy         6.1662479776 Hartrees.
 NAtoms=    3 NActive=    3 NUniq=    3 SFac= 1.00D+00 NAtFMM=   60 NAOKFM=F Big=F
 Integral buffers will be    131072 words long.
 Raffenetti 2 integral format.
 Two-electron integral symmetry is turned off.
 One-electron integrals computed using PRISM.
 NBasis=    30 RedAO= T EigKep=  3.92D-02  NBF=    30
 NBsUse=    30 1.00D-06 EigRej= -1.00D+00 NBFU=    30
 ExpMin= 1.03D-01 ExpMax= 1.14D+04 ExpMxC= 1.72D+03 IAcc=3 IRadAn=         5 AccDes= 0.00D+00
 Harris functional with IExCor=  402 and IRadAn=       5 diagonalized for initial guess.
 HarFok:  IExCor=  402 AccDes= 0.00D+00 IRadAn=         5 IDoV= 1 UseB2=F ITyADJ=14
 ICtDFT=  3500011 ScaDFX=  1.000000  1.000000  1.000000  1.000000
 FoFCou: FMM=F IPFlag=           0 FMFlag=      100000 FMFlg1=           0
         NFxFlg=           0 DoJE=T BraDBF=F KetDBF=T FulRan=T
         wScrn=  0.000000 ICntrl=       500 IOpCl=  0 I1Cent=   200000004 NGrid=           0
         NMat0=    1 NMatS0=      1 NMatT0=    0 NMatD0=    1 NMtDS0=    0 NMtDT0=    0
 Symmetry not used in FoFCou.
 Initial guess <Sx>= 0.0000 <Sy>= 0.0000 <Sz>= 0.5000 <S**2>= 0.7500 S= 0.5000
 Keep R1 and R2 ints in memory in canonical form, NReq=7127049.
 Gradient too large for Newton-Raphson -- use scaled steepest descent instead.
     Minimum is close to point  3 DX= -1.47D-02 DF= -5.56D-05 DXR=  3.83D-02 DFR=  1.49D-03 which will be used.
 Gradient too large for Newton-Raphson -- use scaled steepest descent instead.
     Minimum is close to point  3 DX=  3.24D-02 DF= -2.22D-06 DXR=  4.42D-02 DFR=  1.96D-03 which will be used.
 Gradient too large for Newton-Raphson -- use scaled steepest descent instead.
     Minimum is close to point  2 DX=  1.24D-02 DF= -9.40D-08 DXR=  2.42D-02 DFR=  5.86D-04 which will be used.
 LinEq1:  Iter=  0 NonCon=     1 RMS=5.29D-04 Max=6.05D-03 NDo=     1
 AX will form     1 AO Fock derivatives at one time.
 LinEq1:  Iter=  1 NonCon=     1 RMS=2.80D-04 Max=1.66D-03 NDo=     1
 LinEq1:  Iter=  2 NonCon=     1 RMS=2.24D-05 Max=1.89D-04 NDo=     1
 LinEq1:  Iter=  3 NonCon=     1 RMS=3.42D-06 Max=3.06D-05 NDo=     1
 LinEq1:  Iter=  4 NonCon=     1 RMS=5.39D-07 Max=3.63D-06 NDo=     1
 LinEq1:  Iter=  5 NonCon=     1 RMS=6.92D-08 Max=4.36D-07 NDo=     1
 LinEq1:  Iter=  6 NonCon=     1 RMS=1.10D-08 Max=7.46D-08 NDo=     1
 LinEq1:  Iter=  7 NonCon=     0 RMS=1.46D-09 Max=7.80D-09 NDo=     1
 Linear equations converged to 1.640D-09 1.640D-08 after     7 iterations.
     Minimum is close to point  2 DX=  2.27D-03 DF= -1.98D-10 DXR=  2.27D-03 DFR=  5.15D-06 which will be used.
 LinEq1:  Iter=  0 NonCon=     1 RMS=1.30D-06 Max=1.99D-05 NDo=     1
 LinEq1:  Iter=  1 NonCon=     1 RMS=1.97D-07 Max=1.05D-06 NDo=     1
 LinEq1:  Iter=  2 NonCon=     1 RMS=8.67D-08 Max=7.66D-07 NDo=     1
 LinEq1:  Iter=  3 NonCon=     1 RMS=1.82D-08 Max=1.68D-07 NDo=     1
 LinEq1:  Iter=  4 NonCon=     1 RMS=3.47D-09 Max=2.76D-08 NDo=     1
 LinEq1:  Iter=  5 NonCon=     1 RMS=5.41D-10 Max=3.23D-09 NDo=     1
 LinEq1:  Iter=  6 NonCon=     0 RMS=3.16D-11 Max=1.91D-10 NDo=     1
 Linear equations converged to 9.855D-11 9.855D-10 after     6 iterations.
 SCF Done:  E(UB3LYP) =  -100.966308459     a.u. after    6 cycles
            Convg  =    0.7297D-09                    25 Fock formations.
              S**2 =  0.7500                  -V/T =  2.0024
 <Sx>= 0.0000 <Sy>= 0.0000 <Sz>= 0.5000 <S**2>= 0.7500 S= 0.5000
 <L.S>=  0.00000000000    
 Annihilation of the first spin contaminant:
 S**2 before annihilation     0.7500,   after     0.7500
 DoSCS=F DFT=T ScalE2(SS,OS)=  1.000000  1.000000
 Range of M.O.s used for correlation:     1    30
 NBasis=    30 NAE=     6 NBE=     5 NFC=     0 NFV=     0
 NROrb=     30 NOA=     6 NOB=     5 NVA=    24 NVB=    25
 Symmetrizing basis deriv contribution to polar:
 IMax=3 JMax=2 DiffMx= 0.00D+00
 G2DrvN: will do     4 centers at a time, making    1 passes.
 Calling FoFCou, ICntrl=  3107 FMM=F I1Cent=   0 AccDes= 0.00D+00.
 End of G2Drv F.D. properties file   721 does not exist.
 End of G2Drv F.D. properties file   722 does not exist.
 End of G2Drv F.D. properties file   788 does not exist.
          IDoAtm=111
          Differentiating once with respect to electric field.
                with respect to dipole field.
          Differentiating once with respect to nuclear coordinates.
 Keep R1 and R2 ints in memory in canonical form, NReq=7101519.
          There are    12 degrees of freedom in the 1st order CPHF.  IDoFFX=6 NUNeed=     3.
      9 vectors produced by pass  0 Test12= 2.24D-15 8.33D-09 XBig12= 7.61D+00 1.41D+00.
 AX will form     9 AO Fock derivatives at one time.
      9 vectors produced by pass  1 Test12= 2.24D-15 8.33D-09 XBig12= 1.02D+00 2.90D-01.
      9 vectors produced by pass  2 Test12= 2.24D-15 8.33D-09 XBig12= 1.04D-02 3.19D-02.
      9 vectors produced by pass  3 Test12= 2.24D-15 8.33D-09 XBig12= 1.76D-05 2.00D-03.
      7 vectors produced by pass  4 Test12= 2.24D-15 8.33D-09 XBig12= 4.64D-08 8.91D-05.
      4 vectors produced by pass  5 Test12= 2.24D-15 8.33D-09 XBig12= 2.37D-10 5.30D-06.
      2 vectors produced by pass  6 Test12= 2.24D-15 8.33D-09 XBig12= 6.24D-13 2.82D-07.
 InvSVY:  IOpt=1 It=  1 EMax= 5.55D-16
 Solved reduced A of dimension    49 with     9 vectors.
 Isotropic polarizability for W=    0.000000        4.19 Bohr**3.
 End of Minotr F.D. properties file   721 does not exist.
 End of Minotr F.D. properties file   722 does not exist.
 End of Minotr F.D. properties file   788 does not exist.

 **********************************************************************

            Population analysis using the SCF Density.

 **********************************************************************

 Alpha  occ. eigenvalues --  -24.64140  -1.16020  -0.51631  -0.38764  -0.38764
 Alpha  occ. eigenvalues --   -0.34345
 Alpha virt. eigenvalues --    0.00972   0.24922   0.34201   0.94076   0.94076
 Alpha virt. eigenvalues --    0.98600   1.22405   1.23190   1.23190   1.32464
 Alpha virt. eigenvalues --    1.35970   1.35970   1.90642   2.14417   2.34248
 Alpha virt. eigenvalues --    3.82012   3.82012   3.98494   3.98494   4.62611
 Alpha virt. eigenvalues --    6.02497   6.02497   6.37760  66.65030
  Beta  occ. eigenvalues --  -24.64132  -1.16000  -0.51601  -0.38757  -0.38757
  Beta virt. eigenvalues --   -0.07997   0.02322   0.34150   0.38165   0.94077
  Beta virt. eigenvalues --    0.94077   0.98604   1.30232   1.35960   1.35960
  Beta virt. eigenvalues --    1.47288   1.47288   1.49174   1.90830   2.34188
  Beta virt. eigenvalues --    2.43104   3.82016   3.82016   3.98517   3.98517
  Beta virt. eigenvalues --    4.62624   6.02503   6.02503   6.37795  66.65037
          Condensed to atoms (all electrons):
               1          2          3
     1  H    0.421913   0.003783   0.256361
     2  H    0.003783   0.993048  -0.000147
     3  F    0.256361  -0.000147   9.065046
          Atomic-Atomic Spin Densities.
               1          2          3
     1  H   -0.001827   0.003059   0.000318
     2  H    0.003059   0.992892  -0.000261
     3  F    0.000318  -0.000261   0.002702
 Mulliken charges and spin densities:
               1          2
     1  H    0.317943   0.001550
     2  H    0.003316   0.995691
     3  F   -0.321259   0.002759
 Sum of Mulliken charges =   0.00000   1.00000
 Mulliken charges and spin densities with hydrogens summed into heavy atoms:
               1          2
     3  F    0.000000   1.000000
 APT charges:
               1
     1  H    0.382235
     2  H   -0.002945
     3  F   -0.379290
 Sum of APT charges =   0.00000
 APT charges with hydrogens summed into heavy atoms:
               1
     3  F    0.000000
 Electronic spatial extent (au):  <R**2>=             78.5448
 Charge=              0.0000 electrons
 Dipole moment (field-independent basis, Debye):
    X=             -2.0718    Y=              0.0000    Z=             -0.0000  Tot=              2.0718
 Quadrupole moment (field-independent basis, Debye-Ang):
   XX=             -8.1004   YY=             -6.9606   ZZ=             -6.9606
   XY=              0.0000   XZ=             -0.0000   YZ=             -0.0000
 Traceless Quadrupole moment (field-independent basis, Debye-Ang):
   XX=             -0.7598   YY=              0.3799   ZZ=              0.3799
   XY=              0.0000   XZ=             -0.0000   YZ=             -0.0000
 Octapole moment (field-independent basis, Debye-Ang**2):
  XXX=             -4.8671  YYY=              0.0000  ZZZ=             -0.0000  XYY=             -1.1365
  XXY=             -0.0000  XXZ=             -0.0000  XZZ=             -1.1365  YZZ=              0.0000
  YYZ=             -0.0000  XYZ=             -0.0000
 Hexadecapole moment (field-independent basis, Debye-Ang**3):
 XXXX=           -100.7553 YYYY=             -5.0057 ZZZZ=             -5.0057 XXXY=             -0.0000
 XXXZ=             -0.0000 YYYX=             -0.0000 YYYZ=             -0.0000 ZZZX=             -0.0000
 ZZZY=             -0.0000 XXYY=            -18.2902 XXZZ=            -18.2902 YYZZ=             -1.6686
 XXYZ=             -0.0000 YYXZ=             -0.0000 ZZXY=             -0.0000
 N-N= 6.166247977643D+00 E-N=-2.539987851450D+02  KE= 1.007211743504D+02
  Exact polarizability:       7.738       0.000       2.411      -0.000       0.000       2.411
 Approx polarizability:       9.117       0.000       2.385       0.000       0.000       2.385
                          Isotropic Fermi Contact Couplings
        Atom                 a.u.       MegaHertz       Gauss      10(-4) cm-1
     1  H(1)              -0.00034      -1.53331      -0.54712      -0.51146
     2  H(1)               0.29615    1323.76480     472.35220     441.56041
     3  F(19)             -0.00125      -5.25495      -1.87510      -1.75286
 --------------------------------------------------------
       Center         ----  Spin Dipole Couplings  ----
                      3XX-RR        3YY-RR        3ZZ-RR
 --------------------------------------------------------
     1   Atom        0.013645     -0.006823     -0.006823
     2   Atom        0.000306     -0.000153     -0.000153
     3   Atom        0.022465     -0.011232     -0.011232
 --------------------------------------------------------
                        XY            XZ            YZ
 --------------------------------------------------------
     1   Atom        0.000000      0.000000      0.000000
     2   Atom        0.000000      0.000000      0.000000
     3   Atom        0.000000      0.000000      0.000000
 --------------------------------------------------------


 ---------------------------------------------------------------------------------
              Anisotropic Spin Dipole Couplings in Principal Axis System
 ---------------------------------------------------------------------------------

       Atom             a.u.   MegaHertz   Gauss  10(-4) cm-1        Axes

              Baa    -0.0068    -3.640    -1.299    -1.214  0.0000  0.0000  1.0000
     1 H(1)   Bbb    -0.0068    -3.640    -1.299    -1.214 -0.0000  1.0000  0.0000
              Bcc     0.0136     7.280     2.598     2.428  1.0000  0.0000  0.0000
 
              Baa    -0.0002    -0.082    -0.029    -0.027 -0.0000  1.0000  0.0000
     2 H(1)   Bbb    -0.0002    -0.082    -0.029    -0.027  0.0000  0.0000  1.0000
              Bcc     0.0003     0.163     0.058     0.054  1.0000  0.0000  0.0000
 
              Baa    -0.0112    -5.641    -2.013    -1.882  0.0000  0.0000  1.0000
     3 F(19)  Bbb    -0.0112    -5.641    -2.013    -1.882 -0.0000  1.0000  0.0000
              Bcc     0.0225    11.282     4.026     3.763  1.0000  0.0000  0.0000
 

 ---------------------------------------------------------------------------------

 Calling FoFJK, ICntrl=    100127 FMM=F ISym2X=0 I1Cent= 0 IOpClX= 1 NMat=1 NMatS=1 NMatT=0.
 Full mass-weighted force constant matrix:
 Low frequencies ---  -78.7572   -0.0019    0.0012    0.0012   32.8733   32.8733
 Low frequencies --- 1006.6475 1006.6475 3022.4968
 ******    1 imaginary frequencies (negative Signs) ****** 
 Diagonal vibrational polarizability:
        1.8090242       4.6026277       4.6026277
 Harmonic frequencies (cm**-1), IR intensities (KM/Mole), Raman scattering
 activities (A**4/AMU), depolarization ratios for plane and unpolarized
 incident light, reduced masses (AMU), force constants (mDyne/A),
 and normal coordinates:
                      1                      2                      3
                      A                      A                      A
 Frequencies --    -78.7572               974.5934               974.5934
 Red. masses --      1.0531                 1.0341                 1.0341
 Frc consts  --      0.0038                 0.5787                 0.5787
 IR Inten    --      0.3467               162.4500               162.4500
  Atom  AN      X      Y      Z        X      Y      Z        X      Y      Z
     1   1    -0.05   0.00   0.00    -0.00   0.97   0.00     0.00  -0.00   0.97
     2   1     1.00  -0.00  -0.00    -0.00  -0.25  -0.00    -0.00   0.00  -0.25
     3   9    -0.05  -0.00  -0.00     0.00  -0.04  -0.00     0.00   0.00  -0.04
                      4
                      A
 Frequencies --   3022.4968
 Red. masses --      1.0585
 Frc consts  --      5.6972
 IR Inten    --    103.4788
  Atom  AN      X      Y      Z
     1   1     1.00   0.00   0.00
     2   1     0.00  -0.00  -0.00
     3   9    -0.05  -0.00  -0.00

 -------------------
 - Thermochemistry -
 -------------------
 Temperature   298.150 Kelvin.  Pressure   1.00000 Atm.
 Atom     1 has atomic number  1 and mass   1.00783
 Atom     2 has atomic number  1 and mass   1.00783
 Atom     3 has atomic number  9 and mass  18.99840
 Molecular mass:    21.01405 amu.
 Principal axes and moments of inertia in atomic units:
                           1         2         3
     Eigenvalues --     0.00000  54.19564  54.19564
           X            1.00000  -0.00000   0.00000
           Y            0.00000   1.00000   0.00000
           Z            0.00000   0.00000   1.00000
 This molecule is a prolate symmetric top.
 Rotational symmetry number  1.
 Rotational temperature (Kelvin)      1.59817
 Rotational constant (GHZ):          33.300489
    1 imaginary frequencies ignored.
 Zero-point vibrational energy      29737.3 (Joules/Mol)
                                    7.10738 (Kcal/Mol)
 Vibrational temperatures:   1402.22  1402.22  4348.70
          (Kelvin)
 
 Zero-point correction=                           0.011326 (Hartree/Particle)
 Thermal correction to Energy=                    0.013768
 Thermal correction to Enthalpy=                  0.014712
 Thermal correction to Gibbs Free Energy=        -0.008584
 Sum of electronic and zero-point Energies=           -100.954982
 Sum of electronic and thermal Energies=              -100.952540
 Sum of electronic and thermal Enthalpies=            -100.951596
 Sum of electronic and thermal Free Energies=         -100.974892
 
                     E (Thermal)             CV                S
                      KCal/Mol        Cal/Mol-Kelvin    Cal/Mol-Kelvin
 Total                    8.640              5.780             49.030
 Electronic               0.000              0.000              1.377
 Translational            0.889              2.981             35.068
 Rotational               0.592              1.987             12.378
 Vibrational              7.158              0.812              0.207
                       Q            Log10(Q)             Ln(Q)
 Total Bot       0.887620D+04          3.948227          9.091129
 Total V=0       0.143871D+10          9.157972         21.087010
 Vib (Bot)       0.628300D-05         -5.201833        -11.977663
 Vib (V=0)       0.101838D+01          0.007912          0.018218
 Electronic      0.200000D+01          0.301030          0.693147
 Translational   0.378633D+07          6.578219         15.146908
 Rotational      0.186557D+03          2.270811          5.228737
 -------------------------------------------------------------------
 Center     Atomic                   Forces (Hartrees/Bohr)
 Number     Number              X              Y              Z
 -------------------------------------------------------------------
      1        1           0.069158589    0.000000000   -0.000000000
      2        1           0.000239275    0.000000000    0.000000000
      3        9          -0.069397863   -0.000000000    0.000000000
 -------------------------------------------------------------------
 Cartesian Forces:  Max     0.069397863 RMS     0.032658215

 GradGradGradGradGradGradGradGradGradGradGradGradGradGradGradGradGradGrad
 Berny optimization.
 Search for a local minimum.
 Step number   1 out of a maximum of    2
 All quantities printed in internal units (Hartrees-Bohrs-Radians)
 Second derivative matrix not updated -- analytic derivatives used.
 The second derivative matrix:
                          X1        Y1        Z1        X2        Y2
           X1           0.33082
           Y1           0.00000   0.03670
           Z1           0.00000  -0.00000   0.03670
           X2           0.00054  -0.00000  -0.00000  -0.00022
           Y2          -0.00000  -0.00003   0.00000   0.00000   0.00004
           Z2           0.00000   0.00000  -0.00003  -0.00000   0.00000
           X3          -0.33135  -0.00000   0.00000  -0.00031  -0.00000
           Y3          -0.00000  -0.03668   0.00000   0.00000  -0.00001
           Z3          -0.00000   0.00000  -0.03668   0.00000   0.00000
                          Z2        X3        Y3        Z3
           Z2           0.00004
           X3           0.00000   0.33166
           Y3          -0.00000   0.00000   0.03669
           Z3          -0.00001  -0.00000  -0.00000   0.03669
 ITU=  0
     Eigenvalues ---   -0.00031   0.05071   0.05071   0.54196
 Eigenvalue     1 is  -3.12D-04 should be greater than     0.000000 Eigenvector:
                          X2        X1        X3        Y1        Z1
   1                    0.94263  -0.23685  -0.23526   0.00000   0.00000
                          Y2        Y3        Z2        Z3
   1                   -0.00000  -0.00000  -0.00000  -0.00000
 Quadratic step=5.733D-01 exceeds max=3.000D-01 adjusted using Lamda=-3.693D-04.
 Angle between NR and scaled steps=  16.40 degrees.
 Angle between quadratic step and forces=  60.43 degrees.
 Linear search not attempted -- first point.
 B after Tr=    -0.078226    0.000000   -0.000000
         Rot=    0.998661    0.051724   -0.000000   -0.000000 Ang=   5.93 deg.
 Variable       Old X    -DE/DX   Delta X   Delta X   Delta X     New X
                                 (Linear)    (Quad)   (Total)
    X1        0.00000   0.06916   0.00000   0.09121   0.01298   0.01298
    Y1        0.00000   0.00000   0.00000  -0.00000  -0.00000  -0.00000
    Z1        0.00000  -0.00000   0.00000  -0.00000   0.00000   0.00000
    X2       -5.48021   0.00024   0.00000   0.26081   0.18258  -5.29763
    Y2        0.00000   0.00000   0.00000   0.00000   0.00000   0.00000
    Z2        0.00000   0.00000   0.00000   0.00000  -0.00000  -0.00000
    X3        1.88973  -0.06940   0.00000  -0.11734  -0.19557   1.69416
    Y3        0.00000  -0.00000   0.00000   0.00000   0.00000   0.00000
    Z3        0.00000   0.00000   0.00000   0.00000  -0.00000  -0.00000
         Item               Value     Threshold  Converged?
 Maximum Force            0.069398     0.000450     NO 
 RMS     Force            0.032658     0.000300     NO 
 Maximum Displacement     0.195565     0.001800     NO 
 RMS     Displacement     0.089287     0.001200     NO 
 Predicted change in Energy=-7.293207D-03
 GradGradGradGradGradGradGradGradGradGradGradGradGradGradGradGradGradGrad


 ----------------------------------------------------------------------

 Electric dipole moment (input orientation):
 (Debye = 10**-18 statcoulomb cm , SI units = C m)
                  (au)            (Debye)         (10**-30 SI)
   Tot        0.815090D+00      0.207175D+01      0.691062D+01
   x         -0.815090D+00     -0.207175D+01     -0.691062D+01
   y          0.000000D+00      0.000000D+00      0.000000D+00
   z          0.000000D+00      0.000000D+00      0.000000D+00

 Dipole polarizability, Alpha (input orientation).
 (esu units = cm**3 , SI units = C**2 m**2 J**-1)
 Alpha(0;0):
               (au)            (10**-24 esu)      (10**-40 SI)
   iso        0.418646D+01      0.620370D+00      0.690255D+00
   aniso      0.532689D+01      0.789364D+00      0.878286D+00
   xx         0.773772D+01      0.114661D+01      0.127578D+01
   yx         0.000000D+00      0.000000D+00      0.000000D+00
   yy         0.241083D+01      0.357249D+00      0.397493D+00
   zx         0.000000D+00      0.000000D+00      0.000000D+00
   zy         0.000000D+00      0.000000D+00      0.000000D+00
   zz         0.241083D+01      0.357249D+00      0.397493D+00

 ----------------------------------------------------------------------

 Dipole orientation:
     1          0.00000000          0.00000000          0.00000000
     1          0.00000000         -0.00000000          5.48020576
     9         -0.00000000          0.00000000         -1.88972612

 Electric dipole moment (dipole orientation):
 (Debye = 10**-18 statcoulomb cm , SI units = C m)
                  (au)            (Debye)         (10**-30 SI)
   Tot        0.815090D+00      0.207175D+01      0.691062D+01
   x          0.000000D+00      0.000000D+00      0.000000D+00
   y          0.000000D+00      0.000000D+00      0.000000D+00
   z          0.815090D+00      0.207175D+01      0.691062D+01

 Dipole polarizability, Alpha (dipole orientation).
 (esu units = cm**3 , SI units = C**2 m**2 J**-1)
 Alpha(0;0):
               (au)            (10**-24 esu)      (10**-40 SI)
   iso        0.418646D+01      0.620370D+00      0.690255D+00
   aniso      0.532689D+01      0.789364D+00      0.878286D+00
   xx         0.241083D+01      0.357249D+00      0.397493D+00
   yx         0.000000D+00      0.000000D+00      0.000000D+00
   yy         0.241083D+01      0.357249D+00      0.397493D+00
   zx         0.000000D+00      0.000000D+00      0.000000D+00
   zy         0.000000D+00      0.000000D+00      0.000000D+00
   zz         0.773772D+01      0.114661D+01      0.127578D+01

 ----------------------------------------------------------------------
 Unable to Open any file for archive entry.
 1\1\GINC-DESKTOP-B3RIHJD\Freq\UB3LYP\6-311G(d,p)\F1H2(2)\GARYX\22-Aug-
 2025\0\\# sp b3lyp/6-311g** Force nosymm scf=(qc)\\Title Card Required
 \\0,2\H,0.,0.,0.\H,-2.9,0.,0.\F,1.,0.,0.\\Version=ES64L-G16RevC.01\HF=
 -100.9663085\S2=0.750007\S2-1=0.\S2A=0.75\RMSD=4.449e-11\RMSF=3.266e-0
 2\ZeroPoint=0.0113263\Thermal=0.0137681\ETot=-100.9525404\HTot=-100.95
 15962\GTot=-100.9748922\Dipole=-0.8150902,0.,0.\DipoleDeriv=0.3196607,
 0.,0.,0.,0.4135228,0.,0.,0.,0.4135228,-0.0179681,0.,0.,0.,0.0045659,0.
 ,0.,0.,0.0045659,-0.3016926,0.,0.,0.,-0.4180887,0.,0.,0.,-0.4180887\Po
 lar=7.7377249,0.,2.4108347,0.,0.,2.4108347\Quadrupole=-0.5649137,0.282
 4568,0.2824568,0.,0.,0.\PG=C*V [C*(H1H1F1)]\NImag=1\\0.33081795,0.,0.0
 3670401,0.,0.,0.03670401,0.00053500,0.,0.,-0.00022439,0.,-0.00002651,0
 .,0.,0.00003926,0.,0.,-0.00002651,0.,0.,0.00003926,-0.33135295,0.,0.,-
 0.00031061,0.,0.,0.33166356,0.,-0.03667750,0.,0.,-0.00001274,0.,0.,0.0
 3669025,0.,0.,-0.03667750,0.,0.,-0.00001274,0.,0.,0.03669025\\-0.06915
 859,0.,0.,-0.00023927,0.,0.,0.06939786,0.,0.\\\@
 The archive entry for this job was punched.


 NATURE WILL TELL YOU A DIRECT LIE IF SHE CAN.

                                -- CHARLES DARWIN
 Job cpu time:       0 days  0 hours  0 minutes 12.7 seconds.
 Elapsed time:       0 days  0 hours  0 minutes  1.8 seconds.
 File lengths (MBytes):  RWF=      6 Int=      0 D2E=      0 Chk=      1 Scr=      1
 Normal termination of Gaussian 16 at Fri Aug 22 16:01:09 2025.
