 Entering Gaussian System, Link 0=g16
 Initial command:
 /home/garyx/gaussian/g16/l1.exe "/tmp/gaussian_scratch/Gau-69010.inp" -scrdir="/tmp/gaussian_scratch/"
 Entering Link 1 = /home/garyx/gaussian/g16/l1.exe PID=     69012.
  
 Copyright (c) 1988-2019, Gaussian, Inc.  All Rights Reserved.
  
 This is part of the Gaussian(R) 16 program.  It is based on
 the Gaussian(R) 09 system (copyright 2009, Gaussian, Inc.),
 the Gaussian(R) 03 system (copyright 2003, Gaussian, Inc.),
 the Gaussian(R) 98 system (copyright 1998, Gaussian, Inc.),
 the Gaussian(R) 94 system (copyright 1995, Gaussian, Inc.),
 the Gaussian 92(TM) system (copyright 1992, Gaussian, Inc.),
 the Gaussian 90(TM) system (copyright 1990, Gaussian, Inc.),
 the Gaussian 88(TM) system (copyright 1988, Gaussian, Inc.),
 the Gaussian 86(TM) system (copyright 1986, Carnegie Mellon
 University), and the Gaussian 82(TM) system (copyright 1983,
 Carnegie Mellon University). Gaussian is a federally registered
 trademark of Gaussian, Inc.
  
 This software contains proprietary and confidential information,
 including trade secrets, belonging to Gaussian, Inc.
  
 This software is provided under written license and may be
 used, copied, transmitted, or stored only in accord with that
 written license.
  
 The following legend is applicable only to US Government
 contracts under FAR:
  
                    RESTRICTED RIGHTS LEGEND
  
 Use, reproduction and disclosure by the US Government is
 subject to restrictions as set forth in subparagraphs (a)
 and (c) of the Commercial Computer Software - Restricted
 Rights clause in FAR 52.227-19.
  
 Gaussian, Inc.
 340 Quinnipiac St., Bldg. 40, Wallingford CT 06492
  
  
 ---------------------------------------------------------------
 Warning -- This program may not be used in any manner that
 competes with the business of Gaussian, Inc. or will provide
 assistance to any competitor of Gaussian, Inc.  The licensee
 of this program is prohibited from giving any competitor of
 Gaussian, Inc. access to this program.  By using this program,
 the user acknowledges that Gaussian, Inc. is engaged in the
 business of creating and licensing software in the field of
 computational chemistry and represents and warrants to the
 licensee that it is not a competitor of Gaussian, Inc. and that
 it will not use this program in any manner prohibited above.
 ---------------------------------------------------------------
  

 Cite this work as:
 Gaussian 16, Revision C.01,
 M. J. Frisch, G. W. Trucks, H. B. Schlegel, G. E. Scuseria, 
 M. A. Robb, J. R. Cheeseman, G. Scalmani, V. Barone, 
 G. A. Petersson, H. Nakatsuji, X. Li, M. Caricato, A. V. Marenich, 
 J. Bloino, B. G. Janesko, R. Gomperts, B. Mennucci, H. P. Hratchian, 
 J. V. Ortiz, A. F. Izmaylov, J. L. Sonnenberg, D. Williams-Young, 
 F. Ding, F. Lipparini, F. Egidi, J. Goings, B. Peng, A. Petrone, 
 T. Henderson, D. Ranasinghe, V. G. Zakrzewski, J. Gao, N. Rega, 
 G. Zheng, W. Liang, M. Hada, M. Ehara, K. Toyota, R. Fukuda, 
 J. Hasegawa, M. Ishida, T. Nakajima, Y. Honda, O. Kitao, H. Nakai, 
 T. Vreven, K. Throssell, J. A. Montgomery, Jr., J. E. Peralta, 
 F. Ogliaro, M. J. Bearpark, J. J. Heyd, E. N. Brothers, K. N. Kudin, 
 V. N. Staroverov, T. A. Keith, R. Kobayashi, J. Normand, 
 K. Raghavachari, A. P. Rendell, J. C. Burant, S. S. Iyengar, 
 J. Tomasi, M. Cossi, J. M. Millam, M. Klene, C. Adamo, R. Cammi, 
 J. W. Ochterski, R. L. Martin, K. Morokuma, O. Farkas, 
 J. B. Foresman, and D. J. Fox, Gaussian, Inc., Wallingford CT, 2019.
 
 ******************************************
 Gaussian 16:  ES64L-G16RevC.01  3-Jul-2019
                22-Aug-2025 
 ******************************************
 %mem=10GB
 %nprocs=8
 Will use up to    8 processors via shared memory.
 -----------------------------------------
 # sp b3lyp/6-311g** Force nosymm scf=(qc)
 -----------------------------------------
 1/10=4,30=1,38=1/1,3;
 2/12=2,15=1,17=6,18=5,40=1/2;
 3/5=4,6=6,7=101,11=2,25=1,30=1,71=2,74=-5,140=1/1,2,3;
 4//1;
 5/5=2,8=3,38=5,98=1/8;
 8/6=4,10=90,11=11/1;
 11/6=1,8=1,9=11,15=111,16=1,31=1/1,2,10;
 10/6=1,31=1/2;
 6/7=2,8=2,9=2,10=2,28=1/1;
 7/8=1,10=1,25=1,30=1/1,2,3,16;
 1/10=4,30=1/3;
 99//99;
 -------------------
 Title Card Required
 -------------------
 Symbolic Z-matrix:
 Charge =  0 Multiplicity = 2
 H                     0.        0.        0. 
 H                    -1.1       0.        0. 
 F                     0.55      0.        0. 
 

 GradGradGradGradGradGradGradGradGradGradGradGradGradGradGradGradGradGrad
 Berny optimization.
 Initialization pass.
 Trust Radius=3.00D-01 FncErr=1.00D-07 GrdErr=1.00D-07 EigMax=2.50D+02 EigMin=1.00D-04
 Number of steps in this run=      2 maximum allowed number of steps=      2.
 GradGradGradGradGradGradGradGradGradGradGradGradGradGradGradGradGradGrad

                          Input orientation:                          
 ---------------------------------------------------------------------
 Center     Atomic      Atomic             Coordinates (Angstroms)
 Number     Number       Type             X           Y           Z
 ---------------------------------------------------------------------
      1          1           0        0.000000    0.000000    0.000000
      2          1           0       -1.100000    0.000000    0.000000
      3          9           0        0.550000    0.000000    0.000000
 ---------------------------------------------------------------------
                    Distance matrix (angstroms):
                    1          2          3
     1  H    0.000000
     2  H    1.100000   0.000000
     3  F    0.550000   1.650000   0.000000
 Symmetry turned off by external request.
 Stoichiometry    FH2(2)
 Framework group  C*V[C*(HHF)]
 Deg. of freedom     2
 Full point group                 C*V     NOp   4
 Rotational constants (GHZ):           0.0000000         179.5479516         179.5479516
 Standard basis: 6-311G(d,p) (5D, 7F)
    30 basis functions,    48 primitive gaussians,    31 cartesian basis functions
     6 alpha electrons        5 beta electrons
       nuclear repulsion energy        12.0267547936 Hartrees.
 NAtoms=    3 NActive=    3 NUniq=    3 SFac= 1.00D+00 NAtFMM=   60 NAOKFM=F Big=F
 Integral buffers will be    131072 words long.
 Raffenetti 2 integral format.
 Two-electron integral symmetry is turned off.
 One-electron integrals computed using PRISM.
 NBasis=    30 RedAO= T EigKep=  3.11D-03  NBF=    30
 NBsUse=    30 1.00D-06 EigRej= -1.00D+00 NBFU=    30
 ExpMin= 1.03D-01 ExpMax= 1.14D+04 ExpMxC= 1.72D+03 IAcc=3 IRadAn=         5 AccDes= 0.00D+00
 Harris functional with IExCor=  402 and IRadAn=       5 diagonalized for initial guess.
 HarFok:  IExCor=  402 AccDes= 0.00D+00 IRadAn=         5 IDoV= 1 UseB2=F ITyADJ=14
 ICtDFT=  3500011 ScaDFX=  1.000000  1.000000  1.000000  1.000000
 FoFCou: FMM=F IPFlag=           0 FMFlag=      100000 FMFlg1=           0
         NFxFlg=           0 DoJE=T BraDBF=F KetDBF=T FulRan=T
         wScrn=  0.000000 ICntrl=       500 IOpCl=  0 I1Cent=   200000004 NGrid=           0
         NMat0=    1 NMatS0=      1 NMatT0=    0 NMatD0=    1 NMtDS0=    0 NMtDT0=    0
 Symmetry not used in FoFCou.
 Initial guess <Sx>= 0.0000 <Sy>= 0.0000 <Sz>= 0.5000 <S**2>= 0.7500 S= 0.5000
 Keep R1 and R2 ints in memory in canonical form, NReq=7127049.
 Gradient too large for Newton-Raphson -- use scaled steepest descent instead.
     Minimum is close to point  3 DX=  4.22D-02 DF= -8.12D-04 DXR=  9.54D-02 DFR=  9.37D-03 which will be used.
 Gradient too large for Newton-Raphson -- use scaled steepest descent instead.
     Minimum is close to point  3 DX=  3.81D-03 DF= -7.61D-08 DXR=  5.41D-03 DFR=  2.93D-05 which will be used.
 Gradient too large for Newton-Raphson -- use scaled steepest descent instead.
     Minimum is close to point  2 DX=  1.72D-02 DF= -2.42D-07 DXR=  2.79D-02 DFR=  7.77D-04 which will be used.
 Gradient too large for Newton-Raphson -- use scaled steepest descent instead.
     Minimum is close to point  2 DX=  6.03D-02 DF= -3.54D-07 DXR=  7.93D-02 DFR=  6.34D-03 which will be used.
 LinEq1:  Iter=  0 NonCon=     1 RMS=2.59D-04 Max=2.46D-03 NDo=     1
 AX will form     1 AO Fock derivatives at one time.
 LinEq1:  Iter=  1 NonCon=     1 RMS=1.28D-04 Max=6.83D-04 NDo=     1
 LinEq1:  Iter=  2 NonCon=     1 RMS=1.85D-05 Max=2.02D-04 NDo=     1
 LinEq1:  Iter=  3 NonCon=     1 RMS=1.28D-06 Max=1.14D-05 NDo=     1
 LinEq1:  Iter=  4 NonCon=     1 RMS=1.14D-07 Max=6.47D-07 NDo=     1
 LinEq1:  Iter=  5 NonCon=     1 RMS=2.70D-08 Max=1.41D-07 NDo=     1
 LinEq1:  Iter=  6 NonCon=     1 RMS=5.00D-09 Max=2.23D-08 NDo=     1
 LinEq1:  Iter=  7 NonCon=     0 RMS=6.33D-10 Max=3.47D-09 NDo=     1
 Linear equations converged to 1.640D-09 1.640D-08 after     7 iterations.
     Minimum is close to point  2 DX=  2.57D-04 DF= -8.24D-13 DXR=  2.57D-04 DFR=  6.52D-08 which will be used.
 LinEq1:  Iter=  0 NonCon=     1 RMS=3.09D-07 Max=2.05D-06 NDo=     1
 LinEq1:  Iter=  1 NonCon=     1 RMS=1.64D-07 Max=1.16D-06 NDo=     1
 LinEq1:  Iter=  2 NonCon=     1 RMS=2.06D-08 Max=2.53D-07 NDo=     1
 LinEq1:  Iter=  3 NonCon=     1 RMS=2.86D-09 Max=2.51D-08 NDo=     1
 LinEq1:  Iter=  4 NonCon=     1 RMS=5.53D-10 Max=2.86D-09 NDo=     1
 LinEq1:  Iter=  5 NonCon=     1 RMS=8.40D-11 Max=4.64D-10 NDo=     1
 LinEq1:  Iter=  6 NonCon=     0 RMS=5.89D-12 Max=4.49D-11 NDo=     1
 Linear equations converged to 6.996D-11 6.996D-10 after     6 iterations.
 SCF Done:  E(UB3LYP) =  -100.482814944     a.u. after    7 cycles
            Convg  =    0.2529D-09                    27 Fock formations.
              S**2 =  0.7503                  -V/T =  1.9788
 <Sx>= 0.0000 <Sy>= 0.0000 <Sz>= 0.5000 <S**2>= 0.7503 S= 0.5002
 <L.S>=  0.00000000000    
 Annihilation of the first spin contaminant:
 S**2 before annihilation     0.7503,   after     0.7500
 DoSCS=F DFT=T ScalE2(SS,OS)=  1.000000  1.000000
 Range of M.O.s used for correlation:     1    30
 NBasis=    30 NAE=     6 NBE=     5 NFC=     0 NFV=     0
 NROrb=     30 NOA=     6 NOB=     5 NVA=    24 NVB=    25
 Symmetrizing basis deriv contribution to polar:
 IMax=3 JMax=2 DiffMx= 0.00D+00
 G2DrvN: will do     4 centers at a time, making    1 passes.
 Calling FoFCou, ICntrl=  3107 FMM=F I1Cent=   0 AccDes= 0.00D+00.
 End of G2Drv F.D. properties file   721 does not exist.
 End of G2Drv F.D. properties file   722 does not exist.
 End of G2Drv F.D. properties file   788 does not exist.
          IDoAtm=111
          Differentiating once with respect to electric field.
                with respect to dipole field.
          Differentiating once with respect to nuclear coordinates.
 Keep R1 and R2 ints in memory in canonical form, NReq=7101505.
          There are    12 degrees of freedom in the 1st order CPHF.  IDoFFX=6 NUNeed=     3.
      9 vectors produced by pass  0 Test12= 2.24D-15 8.33D-09 XBig12= 3.94D+00 1.23D+00.
 AX will form     9 AO Fock derivatives at one time.
      9 vectors produced by pass  1 Test12= 2.24D-15 8.33D-09 XBig12= 1.17D-01 1.36D-01.
      9 vectors produced by pass  2 Test12= 2.24D-15 8.33D-09 XBig12= 2.13D-03 1.95D-02.
      9 vectors produced by pass  3 Test12= 2.24D-15 8.33D-09 XBig12= 4.94D-06 5.21D-04.
      9 vectors produced by pass  4 Test12= 2.24D-15 8.33D-09 XBig12= 4.09D-08 4.65D-05.
      4 vectors produced by pass  5 Test12= 2.24D-15 8.33D-09 XBig12= 1.05D-10 3.54D-06.
      2 vectors produced by pass  6 Test12= 2.24D-15 8.33D-09 XBig12= 3.16D-13 1.53D-07.
 InvSVY:  IOpt=1 It=  1 EMax= 6.66D-16
 Solved reduced A of dimension    51 with     9 vectors.
 Isotropic polarizability for W=    0.000000        3.75 Bohr**3.
 End of Minotr F.D. properties file   721 does not exist.
 End of Minotr F.D. properties file   722 does not exist.
 End of Minotr F.D. properties file   788 does not exist.

 **********************************************************************

            Population analysis using the SCF Density.

 **********************************************************************

 Alpha  occ. eigenvalues --  -24.64358  -1.41253  -0.65532  -0.45297  -0.45297
 Alpha  occ. eigenvalues --   -0.34204
 Alpha virt. eigenvalues --    0.16144   0.20663   0.76745   0.88005   0.88005
 Alpha virt. eigenvalues --    0.88737   1.11747   1.11747   1.50147   1.72134
 Alpha virt. eigenvalues --    1.72134   1.75869   2.11241   2.41120   3.75634
 Alpha virt. eigenvalues --    3.75634   4.21706   4.53426   4.53426   5.53504
 Alpha virt. eigenvalues --    6.11509   6.11509   7.72443  67.42505
  Beta  occ. eigenvalues --  -24.64092  -1.40350  -0.64279  -0.45100  -0.45100
  Beta virt. eigenvalues --   -0.11571   0.16942   0.28256   0.82335   0.88937
  Beta virt. eigenvalues --    0.88937   0.89500   1.21492   1.21492   1.50761
  Beta virt. eigenvalues --    1.77531   1.77531   1.82105   2.21651   2.58512
  Beta virt. eigenvalues --    3.75759   3.75759   4.24126   4.53997   4.53997
  Beta virt. eigenvalues --    5.54829   6.11714   6.11714   7.73273  67.42788
          Condensed to atoms (all electrons):
               1          2          3
     1  H    0.362595   0.029412   0.391698
     2  H    0.029412   1.065415  -0.071691
     3  F    0.391698  -0.071691   8.873153
          Atomic-Atomic Spin Densities.
               1          2          3
     1  H   -0.014510   0.003672   0.012167
     2  H    0.003672   1.048281  -0.072497
     3  F    0.012167  -0.072497   0.079544
 Mulliken charges and spin densities:
               1          2
     1  H    0.216295   0.001329
     2  H   -0.023135   0.979456
     3  F   -0.193160   0.019215
 Sum of Mulliken charges =   0.00000   1.00000
 Mulliken charges and spin densities with hydrogens summed into heavy atoms:
               1          2
     3  F    0.000000   1.000000
 APT charges:
               1
     1  H    0.355878
     2  H    0.077421
     3  F   -0.433298
 Sum of APT charges =   0.00000
 APT charges with hydrogens summed into heavy atoms:
               1
     3  F    0.000000
 Electronic spatial extent (au):  <R**2>=             28.7928
 Charge=              0.0000 electrons
 Dipole moment (field-independent basis, Debye):
    X=             -1.0435    Y=             -0.0000    Z=              0.0000  Tot=              1.0435
 Quadrupole moment (field-independent basis, Debye-Ang):
   XX=             -7.0781   YY=             -6.3803   ZZ=             -6.3803
   XY=             -0.0000   XZ=              0.0000   YZ=             -0.0000
 Traceless Quadrupole moment (field-independent basis, Debye-Ang):
   XX=             -0.4651   YY=              0.2326   ZZ=              0.2326
   XY=             -0.0000   XZ=              0.0000   YZ=             -0.0000
 Octapole moment (field-independent basis, Debye-Ang**2):
  XXX=             -3.2487  YYY=             -0.0000  ZZZ=              0.0000  XYY=             -1.2762
  XXY=             -0.0000  XXZ=              0.0000  XZZ=             -1.2762  YZZ=             -0.0000
  YYZ=              0.0000  XYZ=             -0.0000
 Hexadecapole moment (field-independent basis, Debye-Ang**3):
 XXXX=            -23.1461 YYYY=             -4.3635 ZZZZ=             -4.3635 XXXY=              0.0000
 XXXZ=             -0.0000 YYYX=             -0.0000 YYYZ=             -0.0000 ZZZX=              0.0000
 ZZZY=             -0.0000 XXYY=             -4.6269 XXZZ=             -4.6269 YYZZ=             -1.4545
 XXYZ=             -0.0000 YYXZ=              0.0000 ZZXY=             -0.0000
 N-N= 1.202675479364D+01 E-N=-2.654679480707D+02  KE= 1.026569068011D+02
  Exact polarizability:       6.231      -0.000       2.504      -0.000       0.000       2.504
 Approx polarizability:       5.920       0.000       2.555      -0.000       0.000       2.555
                          Isotropic Fermi Contact Couplings
        Atom                 a.u.       MegaHertz       Gauss      10(-4) cm-1
     1  H(1)               0.00969      43.29554      15.44892      14.44184
     2  H(1)               0.32278    1442.78089     514.82010     481.25990
     3  F(19)              0.12238     514.89857     183.72861     171.75168
 --------------------------------------------------------
       Center         ----  Spin Dipole Couplings  ----
                      3XX-RR        3YY-RR        3ZZ-RR
 --------------------------------------------------------
     1   Atom        0.267443     -0.133722     -0.133722
     2   Atom       -0.008839      0.004420      0.004420
     3   Atom        0.489534     -0.244767     -0.244767
 --------------------------------------------------------
                        XY            XZ            YZ
 --------------------------------------------------------
     1   Atom        0.000000      0.000000      0.000000
     2   Atom        0.000000      0.000000      0.000000
     3   Atom        0.000000      0.000000      0.000000
 --------------------------------------------------------


 ---------------------------------------------------------------------------------
              Anisotropic Spin Dipole Couplings in Principal Axis System
 ---------------------------------------------------------------------------------

       Atom             a.u.   MegaHertz   Gauss  10(-4) cm-1        Axes

              Baa    -0.1337   -71.347   -25.459   -23.799 -0.0000  1.0000  0.0000
     1 H(1)   Bbb    -0.1337   -71.347   -25.459   -23.799  0.0000  0.0000  1.0000
              Bcc     0.2674   142.695    50.917    47.598  1.0000  0.0000  0.0000
 
              Baa    -0.0088    -4.716    -1.683    -1.573  1.0000  0.0000  0.0000
     2 H(1)   Bbb     0.0044     2.358     0.841     0.787 -0.0000  1.0000  0.0000
              Bcc     0.0044     2.358     0.841     0.787  0.0000  0.0000  1.0000
 
              Baa    -0.2448  -122.928   -43.864   -41.004  0.0000  0.0000  1.0000
     3 F(19)  Bbb    -0.2448  -122.928   -43.864   -41.004 -0.0000  1.0000  0.0000
              Bcc     0.4895   245.856    87.728    82.009  1.0000  0.0000  0.0000
 

 ---------------------------------------------------------------------------------

 Calling FoFJK, ICntrl=    100127 FMM=F ISym2X=0 I1Cent= 0 IOpClX= 1 NMat=1 NMatS=1 NMatT=0.
 Full mass-weighted force constant matrix:
 Low frequencies ----7649.0581-7649.0581 -919.7895 -919.7895   -0.0028    0.0016
 Low frequencies ---    0.0016 1892.892915788.5450
 ******    2 imaginary frequencies (negative Signs) ****** 
 Diagonal vibrational polarizability:
        0.5040107       0.0860560       0.0860560
 Harmonic frequencies (cm**-1), IR intensities (KM/Mole), Raman scattering
 activities (A**4/AMU), depolarization ratios for plane and unpolarized
 incident light, reduced masses (AMU), force constants (mDyne/A),
 and normal coordinates:
                      1                      2                      3
                      A                      A                      A
 Frequencies --  -7278.3910             -7278.3910              1892.8929
 Red. masses --      1.0281                 1.0281                 1.0540
 Frc consts  --     32.0875                32.0875                 2.2251
 IR Inten    --    169.4020               169.4020                66.3733
  Atom  AN      X      Y      Z        X      Y      Z        X      Y      Z
     1   1    -0.00   0.02   0.95     0.00   0.95  -0.02    -0.04   0.00  -0.00
     2   1     0.00  -0.01  -0.32    -0.00  -0.32   0.01     1.00  -0.00   0.00
     3   9     0.00  -0.00  -0.03     0.00  -0.03   0.00    -0.05  -0.00   0.00
                      4
                      A
 Frequencies --  15788.5450
 Red. masses --      1.0576
 Frc consts  --    155.3230
 IR Inten    --     50.9456
  Atom  AN      X      Y      Z
     1   1     1.00  -0.00   0.00
     2   1    -0.01   0.00  -0.00
     3   9    -0.05   0.00  -0.00

 -------------------
 - Thermochemistry -
 -------------------
 Temperature   298.150 Kelvin.  Pressure   1.00000 Atm.
 Atom     1 has atomic number  1 and mass   1.00783
 Atom     2 has atomic number  1 and mass   1.00783
 Atom     3 has atomic number  9 and mass  18.99840
 Molecular mass:    21.01405 amu.
 Principal axes and moments of inertia in atomic units:
                           1         2         3
     Eigenvalues --     0.00000  10.05158  10.05158
           X            1.00000  -0.00000   0.00000
           Y            0.00000   1.00000   0.00000
           Z            0.00000   0.00000   1.00000
 This molecule is a prolate symmetric top.
 Rotational symmetry number  1.
 Rotational temperature (Kelvin)      8.61694
 Rotational constant (GHZ):         179.547952
    2 imaginary frequencies ignored.
 Zero-point vibrational energy     105758.5 (Joules/Mol)
                                   25.27688 (Kcal/Mol)
 Vibrational temperatures:   2723.45 22716.19
          (Kelvin)
 
 Zero-point correction=                           0.040281 (Hartree/Particle)
 Thermal correction to Energy=                    0.042643
 Thermal correction to Enthalpy=                  0.043587
 Thermal correction to Gibbs Free Energy=         0.021979
 Sum of electronic and zero-point Energies=           -100.442534
 Sum of electronic and thermal Energies=              -100.440172
 Sum of electronic and thermal Enthalpies=            -100.439228
 Sum of electronic and thermal Free Energies=         -100.460836
 
                     E (Thermal)             CV                S
                      KCal/Mol        Cal/Mol-Kelvin    Cal/Mol-Kelvin
 Total                   26.759              4.986             45.477
 Electronic               0.000              0.000              1.377
 Translational            0.889              2.981             35.068
 Rotational               0.592              1.987              9.030
 Vibrational             25.277              0.018              0.002
                       Q            Log10(Q)             Ln(Q)
 Total Bot       0.776768D-10        -10.109709        -23.278465
 Total V=0       0.262046D+09          8.418377         19.384030
 Vib (Bot)       0.296456D-18        -18.528039        -42.662387
 Vib (V=0)       0.100011D+01          0.000047          0.000108
 Electronic      0.200000D+01          0.301030          0.693147
 Translational   0.378633D+07          6.578219         15.146908
 Rotational      0.346004D+02          1.539082          3.543866
 -------------------------------------------------------------------
 Center     Atomic                   Forces (Hartrees/Bohr)
 Number     Number              X              Y              Z
 -------------------------------------------------------------------
      1        1          -2.124690235   -0.000000000    0.000000000
      2        1          -0.069976451    0.000000000   -0.000000000
      3        9           2.194666686    0.000000000   -0.000000000
 -------------------------------------------------------------------
 Cartesian Forces:  Max     2.194666686 RMS     1.018482922

 GradGradGradGradGradGradGradGradGradGradGradGradGradGradGradGradGradGrad
 Berny optimization.
 Search for a local minimum.
 Step number   1 out of a maximum of    2
 All quantities printed in internal units (Hartrees-Bohrs-Radians)
 Second derivative matrix not updated -- analytic derivatives used.
 The second derivative matrix:
                          X1        Y1        Z1        X2        Y2
           X1           9.03503
           Y1          -0.00000  -2.12130
           Z1           0.00000  -0.00000  -2.12130
           X2          -0.07368   0.00000  -0.00000   0.13061
           Y2          -0.00000   0.02567  -0.00000   0.00000  -0.03100
           Z2          -0.00000  -0.00000   0.02567   0.00000   0.00000
           X3          -8.96134   0.00000  -0.00000  -0.05692   0.00000
           Y3           0.00000   2.09563   0.00000  -0.00000   0.00533
           Z3           0.00000   0.00000   2.09563  -0.00000   0.00000
                          Z2        X3        Y3        Z3
           Z2          -0.03100
           X3           0.00000   9.01827
           Y3          -0.00000  -0.00000  -2.10096
           Z3           0.00533  -0.00000  -0.00000  -2.10096
 ITU=  0
     Eigenvalues ---   -2.73694  -2.73694   0.18132  14.72321
 Eigenvalue     1 is  -2.74D+00 should be greater than     0.000000 Eigenvector:
                          Z1        Z2        Z3        Y1        Y2
   1                    0.92824  -0.30941  -0.20627   0.00896  -0.00299
                          Y3        X1        X3        X2
   1                   -0.00199  -0.00000   0.00000   0.00000
 Eigenvalue     2 is  -2.74D+00 should be greater than     0.000000 Eigenvector:
                          Y1        Y2        Y3        Z1        Z2
   1                    0.92824  -0.30941  -0.20627  -0.00896   0.00299
                          Z3        X1        X2        X3
   1                    0.00199   0.00000  -0.00000  -0.00000
 Quadratic step=5.252D-01 exceeds max=3.000D-01 adjusted using Lamda=-1.948D-01.
 Angle between NR and scaled steps=  17.09 degrees.
 Angle between quadratic step and forces=  54.77 degrees.
 Linear search not attempted -- first point.
 B after Tr=     0.080959    0.000000    0.000000
         Rot=    0.842885   -0.538094   -0.000000   -0.000000 Ang= -65.11 deg.
 Variable       Old X    -DE/DX   Delta X   Delta X   Delta X     New X
                                 (Linear)    (Quad)   (Total)
    X1        0.00000  -2.12469   0.00000  -0.11531  -0.03435  -0.03435
    Y1        0.00000  -0.00000   0.00000  -0.00000  -0.00000  -0.00000
    Z1        0.00000   0.00000   0.00000   0.00000  -0.00000  -0.00000
    X2       -2.07870  -0.06998   0.00000  -0.24901  -0.16805  -2.24675
    Y2        0.00000   0.00000   0.00000   0.00000   0.00000   0.00000
    Z2        0.00000  -0.00000   0.00000  -0.00000   0.00000   0.00000
    X3        1.03935   2.19467   0.00000   0.12144   0.20240   1.24175
    Y3        0.00000   0.00000   0.00000   0.00000   0.00000   0.00000
    Z3        0.00000  -0.00000   0.00000  -0.00000   0.00000   0.00000
         Item               Value     Threshold  Converged?
 Maximum Force            2.194667     0.000450     NO 
 RMS     Force            1.018483     0.000300     NO 
 Maximum Displacement     0.202396     0.001800     NO 
 RMS     Displacement     0.088434     0.001200     NO 
 Predicted change in Energy=-2.732342D-01
 GradGradGradGradGradGradGradGradGradGradGradGradGradGradGradGradGradGrad


 ----------------------------------------------------------------------

 Electric dipole moment (input orientation):
 (Debye = 10**-18 statcoulomb cm , SI units = C m)
                  (au)            (Debye)         (10**-30 SI)
   Tot        0.410529D+00      0.104346D+01      0.348061D+01
   x         -0.410529D+00     -0.104346D+01     -0.348061D+01
   y          0.000000D+00      0.000000D+00      0.000000D+00
   z          0.000000D+00      0.000000D+00      0.000000D+00

 Dipole polarizability, Alpha (input orientation).
 (esu units = cm**3 , SI units = C**2 m**2 J**-1)
 Alpha(0;0):
               (au)            (10**-24 esu)      (10**-40 SI)
   iso        0.374629D+01      0.555143D+00      0.617680D+00
   aniso      0.372734D+01      0.552334D+00      0.614555D+00
   xx         0.623118D+01      0.923366D+00      0.102738D+01
   yx         0.000000D+00      0.000000D+00      0.000000D+00
   yy         0.250385D+01      0.371032D+00      0.412828D+00
   zx         0.000000D+00      0.000000D+00      0.000000D+00
   zy         0.000000D+00      0.000000D+00      0.000000D+00
   zz         0.250385D+01      0.371032D+00      0.412828D+00

 ----------------------------------------------------------------------

 Dipole orientation:
     1          0.00000000          0.00000000          0.00000000
     1         -0.00000000          0.00000000          2.07869874
     9          0.00000000         -0.00000000         -1.03934937

 Electric dipole moment (dipole orientation):
 (Debye = 10**-18 statcoulomb cm , SI units = C m)
                  (au)            (Debye)         (10**-30 SI)
   Tot        0.410529D+00      0.104346D+01      0.348061D+01
   x          0.000000D+00      0.000000D+00      0.000000D+00
   y          0.000000D+00      0.000000D+00      0.000000D+00
   z          0.410529D+00      0.104346D+01      0.348061D+01

 Dipole polarizability, Alpha (dipole orientation).
 (esu units = cm**3 , SI units = C**2 m**2 J**-1)
 Alpha(0;0):
               (au)            (10**-24 esu)      (10**-40 SI)
   iso        0.374629D+01      0.555143D+00      0.617680D+00
   aniso      0.372734D+01      0.552334D+00      0.614555D+00
   xx         0.250385D+01      0.371032D+00      0.412828D+00
   yx         0.000000D+00      0.000000D+00      0.000000D+00
   yy         0.250385D+01      0.371032D+00      0.412828D+00
   zx         0.000000D+00      0.000000D+00      0.000000D+00
   zy         0.000000D+00      0.000000D+00      0.000000D+00
   zz         0.623118D+01      0.923366D+00      0.102738D+01

 ----------------------------------------------------------------------
 Unable to Open any file for archive entry.
 1\1\GINC-DESKTOP-B3RIHJD\Freq\UB3LYP\6-311G(d,p)\F1H2(2)\GARYX\22-Aug-
 2025\0\\# sp b3lyp/6-311g** Force nosymm scf=(qc)\\Title Card Required
 \\0,2\H,0.,0.,0.\H,-1.1,0.,0.\F,0.55,0.,0.\\Version=ES64L-G16RevC.01\H
 F=-100.4828149\S2=0.750336\S2-1=0.\S2A=0.75\RMSD=1.542e-11\RMSF=1.018e
 +00\ZeroPoint=0.0402813\Thermal=0.0426427\ETot=-100.4401723\HTot=-100.
 4392281\GTot=-100.4608358\Dipole=-0.4105291,0.,0.\DipoleDeriv=0.212764
 5,0.,0.,0.,0.4274344,0.,0.,0.,0.4274344,0.2538948,0.,0.,0.,-0.0108164,
 0.,0.,0.,-0.0108164,-0.4666593,0.,0.,0.,-0.416618,0.,0.,0.,-0.416618\P
 olar=6.2311811,0.,2.5038451,0.,0.,2.5038451\Quadrupole=-0.3458246,0.17
 29123,0.1729123,0.,0.,0.\PG=C*V [C*(H1H1F1)]\NImag=2\\9.03502689,0.,-2
 .12129516,0.,0.,-2.12129516,-0.07368330,0.,0.,0.13060808,0.,0.02566501
 ,0.,0.,-0.03099736,0.,0.,0.02566501,0.,0.,-0.03099736,-8.96134359,0.,0
 .,-0.05692478,0.,0.,9.01826836,0.,2.09563015,0.,0.,0.00533235,0.,0.,-2
 .10096250,0.,0.,2.09563015,0.,0.,0.00533235,0.,0.,-2.10096250\\2.12469
 024,0.,0.,0.06997645,0.,0.,-2.19466669,0.,0.\\\@
 The archive entry for this job was punched.


 TWO ROADS DIVERGED IN A WOOD, AND I--
 I TOOK THE ONE LESS TRAVELED BY,
 AND THAT HAS MADE ALL THE DIFFERENCE.

                       -- ROBERT FROST
 Job cpu time:       0 days  0 hours  0 minutes 14.4 seconds.
 Elapsed time:       0 days  0 hours  0 minutes  2.0 seconds.
 File lengths (MBytes):  RWF=      6 Int=      0 D2E=      0 Chk=      1 Scr=      1
 Normal termination of Gaussian 16 at Fri Aug 22 15:38:43 2025.
