 Entering Gaussian System, Link 0=g16
 Initial command:
 /home/garyx/gaussian/g16/l1.exe "/tmp/gaussian_scratch/Gau-907351.inp" -scrdir="/tmp/gaussian_scratch/"
 Entering Link 1 = /home/garyx/gaussian/g16/l1.exe PID=    907353.
  
 Copyright (c) 1988-2019, Gaussian, Inc.  All Rights Reserved.
  
 This is part of the Gaussian(R) 16 program.  It is based on
 the Gaussian(R) 09 system (copyright 2009, Gaussian, Inc.),
 the Gaussian(R) 03 system (copyright 2003, Gaussian, Inc.),
 the Gaussian(R) 98 system (copyright 1998, Gaussian, Inc.),
 the Gaussian(R) 94 system (copyright 1995, Gaussian, Inc.),
 the Gaussian 92(TM) system (copyright 1992, Gaussian, Inc.),
 the Gaussian 90(TM) system (copyright 1990, Gaussian, Inc.),
 the Gaussian 88(TM) system (copyright 1988, Gaussian, Inc.),
 the Gaussian 86(TM) system (copyright 1986, Carnegie Mellon
 University), and the Gaussian 82(TM) system (copyright 1983,
 Carnegie Mellon University). Gaussian is a federally registered
 trademark of Gaussian, Inc.
  
 This software contains proprietary and confidential information,
 including trade secrets, belonging to Gaussian, Inc.
  
 This software is provided under written license and may be
 used, copied, transmitted, or stored only in accord with that
 written license.
  
 The following legend is applicable only to US Government
 contracts under FAR:
  
                    RESTRICTED RIGHTS LEGEND
  
 Use, reproduction and disclosure by the US Government is
 subject to restrictions as set forth in subparagraphs (a)
 and (c) of the Commercial Computer Software - Restricted
 Rights clause in FAR 52.227-19.
  
 Gaussian, Inc.
 340 Quinnipiac St., Bldg. 40, Wallingford CT 06492
  
  
 ---------------------------------------------------------------
 Warning -- This program may not be used in any manner that
 competes with the business of Gaussian, Inc. or will provide
 assistance to any competitor of Gaussian, Inc.  The licensee
 of this program is prohibited from giving any competitor of
 Gaussian, Inc. access to this program.  By using this program,
 the user acknowledges that Gaussian, Inc. is engaged in the
 business of creating and licensing software in the field of
 computational chemistry and represents and warrants to the
 licensee that it is not a competitor of Gaussian, Inc. and that
 it will not use this program in any manner prohibited above.
 ---------------------------------------------------------------
  

 Cite this work as:
 Gaussian 16, Revision C.01,
 M. J. Frisch, G. W. Trucks, H. B. Schlegel, G. E. Scuseria, 
 M. A. Robb, J. R. Cheeseman, G. Scalmani, V. Barone, 
 G. A. Petersson, H. Nakatsuji, X. Li, M. Caricato, A. V. Marenich, 
 J. Bloino, B. G. Janesko, R. Gomperts, B. Mennucci, H. P. Hratchian, 
 J. V. Ortiz, A. F. Izmaylov, J. L. Sonnenberg, D. Williams-Young, 
 F. Ding, F. Lipparini, F. Egidi, J. Goings, B. Peng, A. Petrone, 
 T. Henderson, D. Ranasinghe, V. G. Zakrzewski, J. Gao, N. Rega, 
 G. Zheng, W. Liang, M. Hada, M. Ehara, K. Toyota, R. Fukuda, 
 J. Hasegawa, M. Ishida, T. Nakajima, Y. Honda, O. Kitao, H. Nakai, 
 T. Vreven, K. Throssell, J. A. Montgomery, Jr., J. E. Peralta, 
 F. Ogliaro, M. J. Bearpark, J. J. Heyd, E. N. Brothers, K. N. Kudin, 
 V. N. Staroverov, T. A. Keith, R. Kobayashi, J. Normand, 
 K. Raghavachari, A. P. Rendell, J. C. Burant, S. S. Iyengar, 
 J. Tomasi, M. Cossi, J. M. Millam, M. Klene, C. Adamo, R. Cammi, 
 J. W. Ochterski, R. L. Martin, K. Morokuma, O. Farkas, 
 J. B. Foresman, and D. J. Fox, Gaussian, Inc., Wallingford CT, 2019.
 
 ******************************************
 Gaussian 16:  ES64L-G16RevC.01  3-Jul-2019
                22-Aug-2025 
 ******************************************
 %mem=10GB
 %nprocs=8
 Will use up to    8 processors via shared memory.
 -----------------------------------------
 # sp b3lyp/6-311g** Force nosymm scf=(qc)
 -----------------------------------------
 1/10=4,30=1,38=1/1,3;
 2/12=2,15=1,17=6,18=5,40=1/2;
 3/5=4,6=6,7=101,11=2,25=1,30=1,71=2,74=-5,140=1/1,2,3;
 4//1;
 5/5=2,8=3,38=5,98=1/8;
 8/6=4,10=90,11=11/1;
 11/6=1,8=1,9=11,15=111,16=1,31=1/1,2,10;
 10/6=1,31=1/2;
 6/7=2,8=2,9=2,10=2,28=1/1;
 7/8=1,10=1,25=1,30=1/1,2,3,16;
 1/10=4,30=1/3;
 99//99;
 -------------------
 Title Card Required
 -------------------
 Symbolic Z-matrix:
 Charge =  0 Multiplicity = 2
 H                     0.        0.        0. 
 H                    -2.95      0.        0. 
 F                     3.35      0.        0. 
 

 GradGradGradGradGradGradGradGradGradGradGradGradGradGradGradGradGradGrad
 Berny optimization.
 Initialization pass.
 Trust Radius=3.00D-01 FncErr=1.00D-07 GrdErr=1.00D-07 EigMax=2.50D+02 EigMin=1.00D-04
 Number of steps in this run=      2 maximum allowed number of steps=      2.
 GradGradGradGradGradGradGradGradGradGradGradGradGradGradGradGradGradGrad

                          Input orientation:                          
 ---------------------------------------------------------------------
 Center     Atomic      Atomic             Coordinates (Angstroms)
 Number     Number       Type             X           Y           Z
 ---------------------------------------------------------------------
      1          1           0        0.000000    0.000000    0.000000
      2          1           0       -2.950000    0.000000    0.000000
      3          9           0        3.350000    0.000000    0.000000
 ---------------------------------------------------------------------
                    Distance matrix (angstroms):
                    1          2          3
     1  H    0.000000
     2  H    2.950000   0.000000
     3  F    3.350000   6.300000   0.000000
 Symmetry turned off by external request.
 Stoichiometry    FH2(2)
 Framework group  C*V[C*(HHF)]
 Deg. of freedom     2
 Full point group                 C*V     NOp   4
 Rotational constants (GHZ):           0.0000000          10.7964292          10.7964292
 Standard basis: 6-311G(d,p) (5D, 7F)
    30 basis functions,    48 primitive gaussians,    31 cartesian basis functions
     6 alpha electrons        5 beta electrons
       nuclear repulsion energy         2.3570196685 Hartrees.
 NAtoms=    3 NActive=    3 NUniq=    3 SFac= 1.00D+00 NAtFMM=   60 NAOKFM=F Big=F
 Integral buffers will be    131072 words long.
 Raffenetti 2 integral format.
 Two-electron integral symmetry is turned off.
 One-electron integrals computed using PRISM.
 NBasis=    30 RedAO= T EigKep=  8.90D-02  NBF=    30
 NBsUse=    30 1.00D-06 EigRej= -1.00D+00 NBFU=    30
 ExpMin= 1.03D-01 ExpMax= 1.14D+04 ExpMxC= 1.72D+03 IAcc=3 IRadAn=         5 AccDes= 0.00D+00
 Harris functional with IExCor=  402 and IRadAn=       5 diagonalized for initial guess.
 HarFok:  IExCor=  402 AccDes= 0.00D+00 IRadAn=         5 IDoV= 1 UseB2=F ITyADJ=14
 ICtDFT=  3500011 ScaDFX=  1.000000  1.000000  1.000000  1.000000
 FoFCou: FMM=F IPFlag=           0 FMFlag=      100000 FMFlg1=           0
         NFxFlg=           0 DoJE=T BraDBF=F KetDBF=T FulRan=T
         wScrn=  0.000000 ICntrl=       500 IOpCl=  0 I1Cent=   200000004 NGrid=           0
         NMat0=    1 NMatS0=      1 NMatT0=    0 NMatD0=    1 NMtDS0=    0 NMtDT0=    0
 Symmetry not used in FoFCou.
 Initial guess <Sx>= 0.0000 <Sy>= 0.0000 <Sz>= 0.5000 <S**2>= 0.7500 S= 0.5000
 Keep R1 and R2 ints in memory in canonical form, NReq=7127049.
 Gradient too large for Newton-Raphson -- use scaled steepest descent instead.
  Beta Gap=    -0.539 HL deriv= 9.27D-15 Rot set to   3.53D-01
     Minimum is close to point  3 DX=  3.86D-02 DF= -1.08D-03 DXR=  8.79D-02 DFR=  8.26D-03 which will be used.
 Gradient too large for Newton-Raphson -- use scaled steepest descent instead.
 Gradient too large for Newton-Raphson -- use scaled steepest descent instead.
 Gradient too large for Newton-Raphson -- use scaled steepest descent instead.
     Minimum is close to point  3 DX=  2.99D-02 DF= -4.13D-05 DXR=  4.75D-02 DFR=  2.26D-03 which will be used.
 Gradient too large for Newton-Raphson -- use scaled steepest descent instead.
 Gradient too large for Newton-Raphson -- use scaled steepest descent instead.
     Minimum is close to point  3 DX=  2.03D-02 DF= -5.23D-05 DXR=  3.91D-02 DFR=  1.53D-03 which will be used.
 Gradient too large for Newton-Raphson -- use scaled steepest descent instead.
     Minimum is close to point  3 DX=  5.88D-02 DF= -3.63D-05 DXR=  3.54D-02 DFR=  1.33D-03 which will be used.
 Gradient too large for Newton-Raphson -- use scaled steepest descent instead.
     Minimum is close to point  3 DX=  3.24D-02 DF= -2.29D-04 DXR=  9.73D-02 DFR=  9.57D-03 which will be used.
 Gradient too large for Newton-Raphson -- use scaled steepest descent instead.
     Minimum is close to point  3 DX=  7.81D-03 DF= -1.11D-06 DXR=  7.05D-03 DFR=  4.13D-05 which will be used.
 Gradient too large for Newton-Raphson -- use scaled steepest descent instead.
     Accept linear search using points  1 and  2.
 Gradient too large for Newton-Raphson -- use scaled steepest descent instead.
     Minimum is close to point  3 DX=  8.12D-02 DF= -1.00D-04 DXR=  8.28D-02 DFR=  6.97D-03 which will be used.
 Gradient too large for Newton-Raphson -- use scaled steepest descent instead.
 Gradient too large for Newton-Raphson -- use scaled steepest descent instead.
     Accept linear search using points  1 and  2.
 Gradient too large for Newton-Raphson -- use scaled steepest descent instead.
     Accept linear search using points  2 and  3.
 Gradient too large for Newton-Raphson -- use scaled steepest descent instead.
     Accept linear search using points  1 and  2.
 LinEq1:  Iter=  0 NonCon=     1 RMS=2.25D-03 Max=3.62D-02 NDo=     1
 AX will form     1 AO Fock derivatives at one time.
 LinEq1:  Iter=  1 NonCon=     1 RMS=3.31D-04 Max=2.05D-03 NDo=     1
 LinEq1:  Iter=  2 NonCon=     1 RMS=1.84D-04 Max=2.37D-03 NDo=     1
 LinEq1:  Iter=  3 NonCon=     1 RMS=8.54D-05 Max=9.40D-04 NDo=     1
 LinEq1:  Iter=  4 NonCon=     1 RMS=7.82D-06 Max=8.83D-05 NDo=     1
 LinEq1:  Iter=  5 NonCon=     1 RMS=7.39D-07 Max=5.95D-06 NDo=     1
 LinEq1:  Iter=  6 NonCon=     1 RMS=1.64D-07 Max=1.69D-06 NDo=     1
 LinEq1:  Iter=  7 NonCon=     1 RMS=2.01D-08 Max=2.20D-07 NDo=     1
 LinEq1:  Iter=  8 NonCon=     1 RMS=2.52D-09 Max=2.26D-08 NDo=     1
 LinEq1:  Iter=  9 NonCon=     0 RMS=1.22D-09 Max=1.59D-08 NDo=     1
 Linear equations converged to 1.640D-09 1.640D-08 after     9 iterations.
 Incorrect curvature in search direction -- initial direction reversed.
 LinEq1:  Iter=  0 NonCon=     1 RMS=2.68D-03 Max=4.32D-02 NDo=     1
 LinEq1:  Iter=  1 NonCon=     1 RMS=4.48D-04 Max=2.66D-03 NDo=     1
 LinEq1:  Iter=  2 NonCon=     1 RMS=2.44D-04 Max=3.12D-03 NDo=     1
 LinEq1:  Iter=  3 NonCon=     1 RMS=1.18D-04 Max=1.25D-03 NDo=     1
 LinEq1:  Iter=  4 NonCon=     1 RMS=8.80D-06 Max=6.82D-05 NDo=     1
 LinEq1:  Iter=  5 NonCon=     1 RMS=1.12D-06 Max=9.59D-06 NDo=     1
 LinEq1:  Iter=  6 NonCon=     1 RMS=2.70D-07 Max=2.64D-06 NDo=     1
 LinEq1:  Iter=  7 NonCon=     1 RMS=3.05D-08 Max=1.95D-07 NDo=     1
 LinEq1:  Iter=  8 NonCon=     1 RMS=3.36D-09 Max=2.78D-08 NDo=     1
 LinEq1:  Iter=  9 NonCon=     1 RMS=1.52D-09 Max=2.00D-08 NDo=     1
 LinEq1:  Iter= 10 NonCon=     0 RMS=5.13D-10 Max=3.29D-09 NDo=     1
 Linear equations converged to 1.640D-09 1.640D-08 after    10 iterations.
 Gradient too large for Newton-Raphson -- use scaled steepest descent instead.
 LinEq1:  Iter=  0 NonCon=     1 RMS=3.17D-04 Max=3.86D-03 NDo=     1
 LinEq1:  Iter=  1 NonCon=     1 RMS=2.69D-04 Max=2.38D-03 NDo=     1
 LinEq1:  Iter=  2 NonCon=     1 RMS=1.32D-04 Max=1.98D-03 NDo=     1
 LinEq1:  Iter=  3 NonCon=     1 RMS=1.21D-05 Max=1.15D-04 NDo=     1
 LinEq1:  Iter=  4 NonCon=     1 RMS=7.77D-07 Max=8.09D-06 NDo=     1
 LinEq1:  Iter=  5 NonCon=     1 RMS=9.98D-08 Max=8.31D-07 NDo=     1
 LinEq1:  Iter=  6 NonCon=     1 RMS=2.08D-08 Max=1.83D-07 NDo=     1
 LinEq1:  Iter=  7 NonCon=     1 RMS=3.43D-09 Max=2.55D-08 NDo=     1
 LinEq1:  Iter=  8 NonCon=     1 RMS=1.47D-09 Max=2.01D-08 NDo=     1
 LinEq1:  Iter=  9 NonCon=     0 RMS=4.79D-10 Max=3.31D-09 NDo=     1
 Linear equations converged to 1.640D-09 1.640D-08 after     9 iterations.
 LinEq1:  Iter=  0 NonCon=     1 RMS=2.53D-04 Max=2.77D-03 NDo=     1
 LinEq1:  Iter=  1 NonCon=     1 RMS=2.46D-04 Max=2.57D-03 NDo=     1
 LinEq1:  Iter=  2 NonCon=     1 RMS=1.06D-04 Max=1.62D-03 NDo=     1
 LinEq1:  Iter=  3 NonCon=     1 RMS=1.40D-05 Max=1.10D-04 NDo=     1
 LinEq1:  Iter=  4 NonCon=     1 RMS=1.56D-06 Max=1.49D-05 NDo=     1
 LinEq1:  Iter=  5 NonCon=     1 RMS=1.34D-07 Max=1.22D-06 NDo=     1
 LinEq1:  Iter=  6 NonCon=     1 RMS=1.39D-08 Max=1.25D-07 NDo=     1
 LinEq1:  Iter=  7 NonCon=     1 RMS=3.55D-09 Max=3.39D-08 NDo=     1
 LinEq1:  Iter=  8 NonCon=     0 RMS=3.62D-10 Max=2.78D-09 NDo=     1
 Linear equations converged to 1.640D-09 1.640D-08 after     8 iterations.
     Accept linear search using points  1 and  2.
 LinEq1:  Iter=  0 NonCon=     1 RMS=1.46D-04 Max=1.38D-03 NDo=     1
 LinEq1:  Iter=  1 NonCon=     1 RMS=7.65D-05 Max=8.29D-04 NDo=     1
 LinEq1:  Iter=  2 NonCon=     1 RMS=6.15D-05 Max=8.78D-04 NDo=     1
 LinEq1:  Iter=  3 NonCon=     1 RMS=1.27D-05 Max=1.24D-04 NDo=     1
 LinEq1:  Iter=  4 NonCon=     1 RMS=1.12D-06 Max=1.06D-05 NDo=     1
 LinEq1:  Iter=  5 NonCon=     1 RMS=1.29D-07 Max=9.64D-07 NDo=     1
 LinEq1:  Iter=  6 NonCon=     1 RMS=2.78D-08 Max=2.91D-07 NDo=     1
 LinEq1:  Iter=  7 NonCon=     1 RMS=4.39D-09 Max=3.96D-08 NDo=     1
 LinEq1:  Iter=  8 NonCon=     0 RMS=4.98D-10 Max=4.20D-09 NDo=     1
 Linear equations converged to 1.640D-09 1.640D-08 after     8 iterations.
     Accept linear search using points  2 and  3.
 LinEq1:  Iter=  0 NonCon=     1 RMS=3.48D-05 Max=3.85D-04 NDo=     1
 LinEq1:  Iter=  1 NonCon=     1 RMS=1.87D-05 Max=2.38D-04 NDo=     1
 LinEq1:  Iter=  2 NonCon=     1 RMS=1.11D-05 Max=1.25D-04 NDo=     1
 LinEq1:  Iter=  3 NonCon=     1 RMS=2.15D-06 Max=1.84D-05 NDo=     1
 LinEq1:  Iter=  4 NonCon=     1 RMS=2.27D-07 Max=1.75D-06 NDo=     1
 LinEq1:  Iter=  5 NonCon=     1 RMS=1.57D-08 Max=1.43D-07 NDo=     1
 LinEq1:  Iter=  6 NonCon=     1 RMS=3.13D-09 Max=3.65D-08 NDo=     1
 LinEq1:  Iter=  7 NonCon=     0 RMS=3.00D-10 Max=2.26D-09 NDo=     1
 Linear equations converged to 1.640D-09 1.640D-08 after     7 iterations.
     Accept linear search using points  1 and  2.
     Minimum is close to point  2 DX= -7.18D-02 DF= -1.18D-08 DXR=  7.73D-02 DFR=  6.39D-03 which will be used.
 LinEq1:  Iter=  0 NonCon=     1 RMS=8.21D-06 Max=6.70D-05 NDo=     1
 LinEq1:  Iter=  1 NonCon=     1 RMS=1.87D-06 Max=1.59D-05 NDo=     1
 LinEq1:  Iter=  2 NonCon=     1 RMS=1.79D-06 Max=2.18D-05 NDo=     1
 LinEq1:  Iter=  3 NonCon=     1 RMS=4.77D-07 Max=7.06D-06 NDo=     1
 LinEq1:  Iter=  4 NonCon=     1 RMS=7.66D-08 Max=5.92D-07 NDo=     1
 LinEq1:  Iter=  5 NonCon=     1 RMS=7.15D-09 Max=5.61D-08 NDo=     1
 LinEq1:  Iter=  6 NonCon=     0 RMS=1.44D-09 Max=1.54D-08 NDo=     1
 Linear equations converged to 1.640D-09 1.640D-08 after     6 iterations.
     Minimum is close to point  2 DX=  3.15D-03 DF= -4.41D-13 DXR=  3.14D-03 DFR=  9.89D-06 which will be used.
 LinEq1:  Iter=  0 NonCon=     1 RMS=3.52D-07 Max=3.77D-06 NDo=     1
 LinEq1:  Iter=  1 NonCon=     1 RMS=1.04D-07 Max=8.08D-07 NDo=     1
 LinEq1:  Iter=  2 NonCon=     1 RMS=3.06D-08 Max=3.15D-07 NDo=     1
 LinEq1:  Iter=  3 NonCon=     1 RMS=3.30D-08 Max=3.58D-07 NDo=     1
 LinEq1:  Iter=  4 NonCon=     1 RMS=1.14D-08 Max=8.84D-08 NDo=     1
 LinEq1:  Iter=  5 NonCon=     1 RMS=1.50D-09 Max=1.11D-08 NDo=     1
 LinEq1:  Iter=  6 NonCon=     1 RMS=1.91D-10 Max=9.19D-10 NDo=     1
 LinEq1:  Iter=  7 NonCon=     0 RMS=2.51D-11 Max=1.79D-10 NDo=     1
 Linear equations converged to 1.529D-10 1.529D-09 after     7 iterations.
 LinEq1:  Iter=  0 NonCon=     1 RMS=4.48D-09 Max=3.21D-08 NDo=     1
 LinEq1:  Iter=  1 NonCon=     1 RMS=2.80D-09 Max=4.22D-08 NDo=     1
 LinEq1:  Iter=  2 NonCon=     1 RMS=6.73D-10 Max=5.39D-09 NDo=     1
 LinEq1:  Iter=  3 NonCon=     1 RMS=2.41D-10 Max=2.83D-09 NDo=     1
 LinEq1:  Iter=  4 NonCon=     1 RMS=1.25D-10 Max=1.31D-09 NDo=     1
 LinEq1:  Iter=  5 NonCon=     1 RMS=1.61D-11 Max=1.37D-10 NDo=     1
 LinEq1:  Iter=  6 NonCon=     0 RMS=1.88D-12 Max=1.89D-11 NDo=     1
 Linear equations converged to 2.661D-12 2.661D-11 after     6 iterations.
 LinEq1:  Iter=  0 NonCon=     1 RMS=6.08D-09 Max=4.50D-08 NDo=     1
 LinEq1:  Iter=  1 NonCon=     1 RMS=3.95D-09 Max=5.95D-08 NDo=     1
 LinEq1:  Iter=  2 NonCon=     1 RMS=9.16D-10 Max=7.34D-09 NDo=     1
 LinEq1:  Iter=  3 NonCon=     1 RMS=2.84D-10 Max=2.50D-09 NDo=     1
 LinEq1:  Iter=  4 NonCon=     1 RMS=1.39D-10 Max=1.84D-09 NDo=     1
 LinEq1:  Iter=  5 NonCon=     1 RMS=3.21D-11 Max=2.90D-10 NDo=     1
 LinEq1:  Iter=  6 NonCon=     1 RMS=6.60D-12 Max=4.67D-11 NDo=     1
 LinEq1:  Iter=  7 NonCon=     0 RMS=8.57D-13 Max=7.10D-12 NDo=     1
 Linear equations converged to 3.653D-12 3.653D-11 after     7 iterations.
 QCLLim is confused:  Bigger=T Turned=T
 NLin=  3 IMin12=  1  2 I12=  0  2 IX=  1 XLMin= 0.000D+00 XLMax= 0.000D+00
 X = 0.000D+00 1.000D+00 2.000D+00
 DE= 0.000D+00 1.421D-14 5.684D-14
 QCLLim is confused:  Bigger=T Turned=T
 NLin=  4 IMin12=  1  2 I12=  0  2 IX=  1 XLMin= 0.000D+00 XLMax= 0.000D+00
 X = 0.000D+00 1.000D+00 2.000D+00 4.000D+00
 DE= 0.000D+00 1.421D-14 5.684D-14 2.700D-13
 QCLLim is confused:  Bigger=T Turned=T
 NLin=  5 IMin12=  1  2 I12=  0  2 IX=  1 XLMin= 0.000D+00 XLMax= 0.000D+00
 X = 0.000D+00 1.000D+00 2.000D+00 4.000D+00 8.000D+00
 DE= 0.000D+00 1.421D-14 5.684D-14 2.700D-13 1.435D-12
 QCLLim is confused:  Bigger=T Turned=T
 NLin=  6 IMin12=  1  2 I12=  0  2 IX=  1 XLMin= 0.000D+00 XLMax= 0.000D+00
 X = 0.000D+00 1.000D+00 2.000D+00 4.000D+00 8.000D+00 1.600D+01
 DE= 0.000D+00 1.421D-14 5.684D-14 2.700D-13 1.435D-12 6.608D-12
 SCF Done:  E(UB3LYP) =  -100.760495713     a.u. after   27 cycles
            Convg  =    0.1071D-06                   160 Fock formations.
              S**2 =  1.7114                  -V/T =  2.0015
 <Sx>= 0.0000 <Sy>= 0.0000 <Sz>= 0.5000 <S**2>= 1.7114 S= 0.9005
 <L.S>=  0.00000000000    
 Annihilation of the first spin contaminant:
 S**2 before annihilation     1.7114,   after     0.7528
 DoSCS=F DFT=T ScalE2(SS,OS)=  1.000000  1.000000
 Range of M.O.s used for correlation:     1    30
 NBasis=    30 NAE=     6 NBE=     5 NFC=     0 NFV=     0
 NROrb=     30 NOA=     6 NOB=     5 NVA=    24 NVB=    25

 **** Warning!!: The smallest beta delta epsilon is  0.77350839D-01

 Symmetrizing basis deriv contribution to polar:
 IMax=3 JMax=2 DiffMx= 0.00D+00
 G2DrvN: will do     4 centers at a time, making    1 passes.
 Calling FoFCou, ICntrl=  3107 FMM=F I1Cent=   0 AccDes= 0.00D+00.
 End of G2Drv F.D. properties file   721 does not exist.
 End of G2Drv F.D. properties file   722 does not exist.
 End of G2Drv F.D. properties file   788 does not exist.
          IDoAtm=111
          Differentiating once with respect to electric field.
                with respect to dipole field.
          Differentiating once with respect to nuclear coordinates.
 Keep R1 and R2 ints in memory in canonical form, NReq=7101526.
          There are    12 degrees of freedom in the 1st order CPHF.  IDoFFX=6 NUNeed=     3.
      9 vectors produced by pass  0 Test12= 2.24D-15 8.33D-09 XBig12= 1.31D+02 1.11D+01.
 AX will form     9 AO Fock derivatives at one time.
      9 vectors produced by pass  1 Test12= 2.24D-15 8.33D-09 XBig12= 1.40D+00 4.21D-01.
      9 vectors produced by pass  2 Test12= 2.24D-15 8.33D-09 XBig12= 1.80D-01 3.04D-01.
      7 vectors produced by pass  3 Test12= 2.24D-15 8.33D-09 XBig12= 1.07D-03 1.44D-02.
      7 vectors produced by pass  4 Test12= 2.24D-15 8.33D-09 XBig12= 6.79D-06 1.11D-03.
      3 vectors produced by pass  5 Test12= 2.24D-15 8.33D-09 XBig12= 2.30D-08 5.34D-05.
      1 vectors produced by pass  6 Test12= 2.24D-15 8.33D-09 XBig12= 7.42D-11 4.52D-06.
      1 vectors produced by pass  7 Test12= 2.24D-15 8.33D-09 XBig12= 1.26D-13 1.18D-07.
 InvSVY:  IOpt=1 It=  1 EMax= 1.34D-15
 Solved reduced A of dimension    46 with     9 vectors.
 Isotropic polarizability for W=    0.000000       11.51 Bohr**3.
 End of Minotr F.D. properties file   721 does not exist.
 End of Minotr F.D. properties file   722 does not exist.
 End of Minotr F.D. properties file   788 does not exist.

 **********************************************************************

            Population analysis using the SCF Density.

 **********************************************************************

 Alpha  occ. eigenvalues --  -24.75118  -1.21100  -0.54239  -0.45541  -0.45541
 Alpha  occ. eigenvalues --   -0.32525
 Alpha virt. eigenvalues --   -0.08403   0.24971   0.35493   0.88129   0.91646
 Alpha virt. eigenvalues --    0.91646   1.02268   1.25017   1.25017   1.25853
 Alpha virt. eigenvalues --    1.43331   1.43331   1.43436   2.15726   2.39292
 Alpha virt. eigenvalues --    3.66034   3.68193   3.68193   3.75117   3.75118
 Alpha virt. eigenvalues --    5.87526   5.94535   5.94535  66.47877
  Beta  occ. eigenvalues --  -24.72022  -1.12209  -0.42438  -0.42438  -0.33082
  Beta virt. eigenvalues --   -0.25347  -0.07670   0.24769   0.36578   0.93130
  Beta virt. eigenvalues --    0.93130   0.97179   1.06237   1.24365   1.24365
  Beta virt. eigenvalues --    1.25143   1.44505   1.44505   1.44538   2.16188
  Beta virt. eigenvalues --    2.39543   3.76719   3.76719   3.77828   3.77828
  Beta virt. eigenvalues --    3.79808   5.97158   5.97158   6.01405  66.50959
          Condensed to atoms (all electrons):
               1          2          3
     1  H    0.975503   0.006226   0.002589
     2  H    0.006226   0.992768  -0.000000
     3  F    0.002589  -0.000000   9.014100
          Atomic-Atomic Spin Densities.
               1          2          3
     1  H   -0.972365   0.000620  -0.001278
     2  H    0.000620   0.990834  -0.000000
     3  F   -0.001278  -0.000000   0.982847
 Mulliken charges and spin densities:
               1          2
     1  H    0.015683  -0.973023
     2  H    0.001006   0.991454
     3  F   -0.016689   0.981569
 Sum of Mulliken charges =  -0.00000   1.00000
 Mulliken charges and spin densities with hydrogens summed into heavy atoms:
               1          2
     3  F   -0.000000   1.000000
 APT charges:
               1
     1  H   -0.033919
     2  H   -0.000140
     3  F    0.034060
 Sum of APT charges =  -0.00000
 APT charges with hydrogens summed into heavy atoms:
               1
     3  F   -0.000000
 Electronic spatial extent (au):  <R**2>=            408.7146
 Charge=             -0.0000 electrons
 Dipole moment (field-independent basis, Debye):
    X=             -0.3015    Y=             -0.0000    Z=              0.0000  Tot=              0.3015
 Quadrupole moment (field-independent basis, Debye-Ang):
   XX=             -7.5309   YY=             -7.6344   ZZ=             -7.6344
   XY=             -0.0000   XZ=              0.0000   YZ=             -0.0000
 Traceless Quadrupole moment (field-independent basis, Debye-Ang):
   XX=              0.0690   YY=             -0.0345   ZZ=             -0.0345
   XY=             -0.0000   XZ=              0.0000   YZ=             -0.0000
 Octapole moment (field-independent basis, Debye-Ang**2):
  XXX=            -31.4573  YYY=              0.0000  ZZZ=             -0.0000  XYY=            -12.1423
  XXY=             -0.0000  XXZ=              0.0000  XZZ=            -12.1423  YZZ=              0.0000
  YYZ=             -0.0000  XYZ=             -0.0000
 Hexadecapole moment (field-independent basis, Debye-Ang**3):
 XXXX=           -355.2376 YYYY=             -6.3712 ZZZZ=             -6.3712 XXXY=             -0.0000
 XXXZ=              0.0000 YYYX=             -0.0000 YYYZ=             -0.0000 ZZZX=              0.0000
 ZZZY=             -0.0000 XXYY=            -68.5918 XXZZ=            -68.5918 YYZZ=             -2.1237
 XXYZ=             -0.0000 YYXZ=              0.0000 ZZXY=             -0.0000
 N-N= 2.357019668458D+00 E-N=-2.456928231564D+02  KE= 1.006068156506D+02
  Exact polarizability:      30.481      -0.000       2.027       0.000       0.000       2.027
 Approx polarizability:      25.003      -0.000       1.929       0.000       0.000       1.929
                          Isotropic Fermi Contact Couplings
        Atom                 a.u.       MegaHertz       Gauss      10(-4) cm-1
     1  H(1)              -0.29020   -1297.13924    -462.85154    -432.67908
     2  H(1)               0.29460    1316.83322     469.87884     439.24828
     3  F(19)              0.02965     124.77038      44.52118      41.61892
 --------------------------------------------------------
       Center         ----  Spin Dipole Couplings  ----
                      3XX-RR        3YY-RR        3ZZ-RR
 --------------------------------------------------------
     1   Atom        0.019764     -0.009882     -0.009882
     2   Atom       -0.009882      0.004941      0.004941
     3   Atom        6.179739     -3.089870     -3.089870
 --------------------------------------------------------
                        XY            XZ            YZ
 --------------------------------------------------------
     1   Atom        0.000000     -0.000000     -0.000000
     2   Atom        0.000000     -0.000000     -0.000000
     3   Atom       -0.000008      0.000005      0.000000
 --------------------------------------------------------


 ---------------------------------------------------------------------------------
              Anisotropic Spin Dipole Couplings in Principal Axis System
 ---------------------------------------------------------------------------------

       Atom             a.u.   MegaHertz   Gauss  10(-4) cm-1        Axes

              Baa    -0.0099    -5.273    -1.881    -1.759  0.0000  0.5588  0.8293
     1 H(1)   Bbb    -0.0099    -5.273    -1.881    -1.759 -0.0000  0.8293 -0.5588
              Bcc     0.0198    10.545     3.763     3.517  1.0000  0.0000 -0.0000
 
              Baa    -0.0099    -5.272    -1.881    -1.759  1.0000 -0.0000  0.0000
     2 H(1)   Bbb     0.0049     2.636     0.941     0.879 -0.0000  0.5588  0.8293
              Bcc     0.0049     2.636     0.941     0.879  0.0000  0.8293 -0.5588
 
              Baa    -3.0899 -1551.812  -553.725  -517.629  0.0000  0.8298 -0.5581
     3 F(19)  Bbb    -3.0899 -1551.812  -553.725  -517.629 -0.0000  0.5581  0.8298
              Bcc     6.1797  3103.623  1107.450  1035.257  1.0000 -0.0000  0.0000
 

 ---------------------------------------------------------------------------------

 Calling FoFJK, ICntrl=    100127 FMM=F ISym2X=0 I1Cent= 0 IOpClX= 1 NMat=1 NMatS=1 NMatT=0.
 Full mass-weighted force constant matrix:
 Low frequencies --- -395.1867 -152.6255   -0.0022   -0.0018    0.0002   50.2379
 Low frequencies ---   50.2379  140.5461  140.5461
 ******    2 imaginary frequencies (negative Signs) ****** 
 Diagonal vibrational polarizability:
        9.0471991       0.2887122       0.2887122
 Harmonic frequencies (cm**-1), IR intensities (KM/Mole), Raman scattering
 activities (A**4/AMU), depolarization ratios for plane and unpolarized
 incident light, reduced masses (AMU), force constants (mDyne/A),
 and normal coordinates:
                      1                      2                      3
                      A                      A                      A
 Frequencies --   -395.1867              -152.6255               139.3261
 Red. masses --      1.0126                 1.1028                 1.0165
 Frc consts  --      0.0932                 0.0151                 0.0116
 IR Inten    --     12.7592                 5.9282                 0.2083
  Atom  AN      X      Y      Z        X      Y      Z        X      Y      Z
     1   1     0.84  -0.00   0.00     0.52  -0.00   0.00     0.00   0.86  -0.21
     2   1    -0.54   0.00  -0.00     0.85   0.00  -0.00     0.00  -0.46   0.11
     3   9    -0.02   0.00  -0.00    -0.07   0.00  -0.00    -0.00  -0.02   0.01
                      4
                      A
 Frequencies --    139.3262
 Red. masses --      1.0165
 Frc consts  --      0.0116
 IR Inten    --      0.2083
  Atom  AN      X      Y      Z
     1   1    -0.00   0.21   0.86
     2   1    -0.00  -0.11  -0.46
     3   9     0.00  -0.01  -0.02

 -------------------
 - Thermochemistry -
 -------------------
 Temperature   298.150 Kelvin.  Pressure   1.00000 Atm.
 Atom     1 has atomic number  1 and mass   1.00783
 Atom     2 has atomic number  1 and mass   1.00783
 Atom     3 has atomic number  9 and mass  18.99840
 Molecular mass:    21.01405 amu.
 Principal axes and moments of inertia in atomic units:
                           1         2         3
     Eigenvalues --     0.00000 167.16093 167.16093
           X            1.00000  -0.00000   0.00000
           Y            0.00000   1.00000   0.00000
           Z            0.00000   0.00000   1.00000
 This molecule is a prolate symmetric top.
 Rotational symmetry number  1.
 Rotational temperature (Kelvin)      0.51815
 Rotational constant (GHZ):          10.796429
    2 imaginary frequencies ignored.
 Zero-point vibrational energy       1666.7 (Joules/Mol)
                                    0.39835 (Kcal/Mol)
 Warning -- explicit consideration of   2 degrees of freedom as
           vibrations may cause significant error
 Vibrational temperatures:    200.46   200.46
          (Kelvin)
 
 Zero-point correction=                           0.000635 (Hartree/Particle)
 Thermal correction to Energy=                    0.004319
 Thermal correction to Enthalpy=                  0.005264
 Thermal correction to Gibbs Free Energy=        -0.021671
 Sum of electronic and zero-point Energies=           -100.759861
 Sum of electronic and thermal Energies=              -100.756176
 Sum of electronic and thermal Enthalpies=            -100.755232
 Sum of electronic and thermal Free Energies=         -100.782166
 
                     E (Thermal)             CV                S
                      KCal/Mol        Cal/Mol-Kelvin    Cal/Mol-Kelvin
 Total                    2.710              8.796             56.688
 Electronic               0.000              0.000              1.377
 Translational            0.889              2.981             35.068
 Rotational               0.592              1.987             14.616
 Vibrational              1.229              3.828              5.626
 Vibration     1          0.615              1.914              2.813
 Vibration     2          0.615              1.914              2.813
                       Q            Log10(Q)             Ln(Q)
 Total Bot       0.928430D+10          9.967749         22.951590
 Total V=0       0.181863D+11         10.259744         23.623934
 Vib (Bot)       0.213068D+01          0.328518          0.756442
 Vib (Bot)    1  0.145969D+01          0.164259          0.378221
 Vib (Bot)    2  0.145969D+01          0.164259          0.378221
 Vib (V=0)       0.417363D+01          0.620514          1.428785
 Vib (V=0)    1  0.204295D+01          0.310257          0.714393
 Vib (V=0)    2  0.204295D+01          0.310257          0.714393
 Electronic      0.200000D+01          0.301030          0.693147
 Translational   0.378633D+07          6.578219         15.146908
 Rotational      0.575416D+03          2.759982          6.355093
 -------------------------------------------------------------------
 Center     Atomic                   Forces (Hartrees/Bohr)
 Number     Number              X              Y              Z
 -------------------------------------------------------------------
      1        1          -0.000281354    0.000000000   -0.000000000
      2        1           0.001756080    0.000000000   -0.000000000
      3        9          -0.001474726   -0.000000000    0.000000000
 -------------------------------------------------------------------
 Cartesian Forces:  Max     0.001756080 RMS     0.000770122

 GradGradGradGradGradGradGradGradGradGradGradGradGradGradGradGradGradGrad
 Berny optimization.
 Search for a local minimum.
 Step number   1 out of a maximum of    2
 All quantities printed in internal units (Hartrees-Bohrs-Radians)
 Second derivative matrix not updated -- analytic derivatives used.
 The second derivative matrix:
                          X1        Y1        Z1        X2        Y2
           X1          -0.00444
           Y1           0.00000   0.00052
           Z1          -0.00000   0.00000   0.00052
           X2           0.00233  -0.00000  -0.00000  -0.00230
           Y2           0.00000  -0.00032   0.00000  -0.00000   0.00032
           Z2          -0.00000   0.00000  -0.00032   0.00000   0.00000
           X3           0.00211  -0.00000   0.00000  -0.00003  -0.00000
           Y3          -0.00000  -0.00021  -0.00000   0.00000   0.00000
           Z3           0.00000  -0.00000  -0.00021   0.00000  -0.00000
                          Z2        X3        Y3        Z3
           Z2           0.00032
           X3           0.00000  -0.00208
           Y3          -0.00000   0.00000   0.00021
           Z3           0.00000  -0.00000   0.00000   0.00021
 ITU=  0
     Eigenvalues ---   -0.00635  -0.00171   0.00078   0.00078
 Eigenvalue     1 is  -6.35D-03 should be greater than     0.000000 Eigenvector:
                          X1        X2        X3        Y1        Z1
   1                    0.89548  -0.41534  -0.16005  -0.00000   0.00000
                          Y2        Z2        Y3        Z3
   1                    0.00000  -0.00000   0.00000  -0.00000
 Eigenvalue     2 is  -1.71D-03 should be greater than     0.000000 Eigenvector:
                          X2        X3        X1        Y1        Z1
   1                    0.85825  -0.39523   0.32743  -0.00000   0.00000
                          Y2        Z2        Y3        Z3
   1                    0.00000  -0.00000   0.00000  -0.00000
 Quadratic step=1.172D+00 exceeds max=3.000D-01 adjusted using Lamda=-5.101D-03.
 Angle between NR and scaled steps=   6.77 degrees.
 Angle between quadratic step and forces=  23.92 degrees.
 Linear search not attempted -- first point.
 B after Tr=    -0.070303   -0.000000   -0.000000
         Rot=    0.822913   -0.568168    0.000000    0.000000 Ang= -69.25 deg.
 Variable       Old X    -DE/DX   Delta X   Delta X   Delta X     New X
                                 (Linear)    (Quad)   (Total)
    X1        0.00000  -0.00028   0.00000   0.03769  -0.03261  -0.03261
    Y1        0.00000   0.00000   0.00000   0.00000   0.00000   0.00000
    Z1        0.00000  -0.00000   0.00000  -0.00000   0.00000   0.00000
    X2       -5.57469   0.00176   0.00000   0.27867   0.20837  -5.36633
    Y2        0.00000   0.00000   0.00000  -0.00000  -0.00000  -0.00000
    Z2        0.00000  -0.00000   0.00000   0.00000  -0.00000  -0.00000
    X3        6.33058  -0.00147   0.00000  -0.10545  -0.17576   6.15482
    Y3        0.00000  -0.00000   0.00000  -0.00000  -0.00000  -0.00000
    Z3        0.00000   0.00000   0.00000   0.00000  -0.00000  -0.00000
         Item               Value     Threshold  Converged?
 Maximum Force            0.001756     0.000450     NO 
 RMS     Force            0.000770     0.000300     NO 
 Maximum Displacement     0.208366     0.001800     NO 
 RMS     Displacement     0.091512     0.001200     NO 
 Predicted change in Energy=-7.213692D-04
 GradGradGradGradGradGradGradGradGradGradGradGradGradGradGradGradGradGrad


 ----------------------------------------------------------------------

 Electric dipole moment (input orientation):
 (Debye = 10**-18 statcoulomb cm , SI units = C m)
                  (au)            (Debye)         (10**-30 SI)
   Tot        0.118618D+00      0.301497D+00      0.100569D+01
   x         -0.118618D+00     -0.301497D+00     -0.100569D+01
   y          0.000000D+00      0.000000D+00      0.000000D+00
   z          0.000000D+00      0.000000D+00      0.000000D+00

 Dipole polarizability, Alpha (input orientation).
 (esu units = cm**3 , SI units = C**2 m**2 J**-1)
 Alpha(0;0):
               (au)            (10**-24 esu)      (10**-40 SI)
   iso        0.115116D+02      0.170584D+01      0.189800D+01
   aniso      0.284541D+02      0.421646D+01      0.469144D+01
   xx         0.304809D+02      0.451681D+01      0.502563D+01
   yx         0.000000D+00      0.000000D+00      0.000000D+00
   yy         0.202686D+01      0.300350D+00      0.334185D+00
   zx         0.000000D+00      0.000000D+00      0.000000D+00
   zy         0.000000D+00      0.000000D+00      0.000000D+00
   zz         0.202686D+01      0.300350D+00      0.334185D+00

 ----------------------------------------------------------------------

 Dipole orientation:
     1          0.00000000          0.00000000          0.00000000
     1         -0.00000023          0.00000034          5.57469207
     9          0.00000026         -0.00000039         -6.33058252

 Electric dipole moment (dipole orientation):
 (Debye = 10**-18 statcoulomb cm , SI units = C m)
                  (au)            (Debye)         (10**-30 SI)
   Tot        0.118618D+00      0.301497D+00      0.100569D+01
   x          0.000000D+00      0.000000D+00      0.000000D+00
   y          0.000000D+00      0.000000D+00      0.000000D+00
   z          0.118618D+00      0.301497D+00      0.100569D+01

 Dipole polarizability, Alpha (dipole orientation).
 (esu units = cm**3 , SI units = C**2 m**2 J**-1)
 Alpha(0;0):
               (au)            (10**-24 esu)      (10**-40 SI)
   iso        0.115116D+02      0.170584D+01      0.189800D+01
   aniso      0.284541D+02      0.421646D+01      0.469144D+01
   xx         0.202686D+01      0.300350D+00      0.334185D+00
   yx         0.000000D+00      0.000000D+00      0.000000D+00
   yy         0.202686D+01      0.300350D+00      0.334185D+00
   zx         0.000000D+00      0.000000D+00      0.000000D+00
   zy         0.000000D+00      0.000000D+00      0.000000D+00
   zz         0.304809D+02      0.451681D+01      0.502563D+01

 ----------------------------------------------------------------------
 Unable to Open any file for archive entry.
 1\1\GINC-DESKTOP-B3RIHJD\Freq\UB3LYP\6-311G(d,p)\F1H2(2)\GARYX\22-Aug-
 2025\0\\# sp b3lyp/6-311g** Force nosymm scf=(qc)\\Title Card Required
 \\0,2\H,0.,0.,0.\H,-2.95,0.,0.\F,3.35,0.,0.\\Version=ES64L-G16RevC.01\
 HF=-100.7604957\S2=1.711368\S2-1=0.\S2A=0.752836\RMSD=6.528e-09\RMSF=7
 .701e-04\Thermal=0.0043194\ETot=-100.7561763\HTot=-100.7552321\GTot=-1
 00.7821663\Dipole=-0.1186181,0.,0.\DipoleDeriv=-0.1353056,0.,0.,0.,0.0
 167736,0.,0.,0.,0.0167736,-0.0023806,0.,0.,0.,0.00098,0.,0.,0.,0.00098
 ,0.1376862,0.,0.,0.,-0.0177535,0.,0.,0.,-0.0177535\Polar=30.4809274,-0
 .0000006,2.0268641,0.0000004,0.,2.0268641\Quadrupole=0.0512748,-0.0256
 374,-0.0256374,-0.0000006,0.0000004,0.\PG=C*V [C*(H1H1F1)]\NImag=2\\-0
 .00443622,0.,0.00052338,0.,0.,0.00052338,0.00232610,0.,0.,-0.00229814,
 0.,-0.00031531,0.,0.,0.00031522,0.,0.,-0.00031531,0.,0.,0.00031522,0.0
 0211012,0.,0.,-0.00002796,0.,0.,-0.00208216,0.,-0.00020808,0.,0.,0.000
 00009,0.,0.,0.00020799,0.,0.,-0.00020808,0.,0.,0.00000009,0.,0.,0.0002
 0799\\0.00028135,0.,0.,-0.00175608,0.,0.,0.00147473,0.,0.\\\@
 The archive entry for this job was punched.


 AND ALL THIS SCIENCE I DON'T UNDERSTAND
 IT'S JUST MY JOB FIVE DAYS A WEEK

                           -- ELTON JOHN, "ROCKET MAN"
 Job cpu time:       0 days  0 hours  0 minutes 28.9 seconds.
 Elapsed time:       0 days  0 hours  0 minutes  3.9 seconds.
 File lengths (MBytes):  RWF=      6 Int=      0 D2E=      0 Chk=      1 Scr=      1
 Normal termination of Gaussian 16 at Fri Aug 22 21:02:30 2025.
