 Entering Gaussian System, Link 0=g16
 Initial command:
 /home/garyx/gaussian/g16/l1.exe "/tmp/gaussian_scratch/Gau-630089.inp" -scrdir="/tmp/gaussian_scratch/"
 Entering Link 1 = /home/garyx/gaussian/g16/l1.exe PID=    630091.
  
 Copyright (c) 1988-2019, Gaussian, Inc.  All Rights Reserved.
  
 This is part of the Gaussian(R) 16 program.  It is based on
 the Gaussian(R) 09 system (copyright 2009, Gaussian, Inc.),
 the Gaussian(R) 03 system (copyright 2003, Gaussian, Inc.),
 the Gaussian(R) 98 system (copyright 1998, Gaussian, Inc.),
 the Gaussian(R) 94 system (copyright 1995, Gaussian, Inc.),
 the Gaussian 92(TM) system (copyright 1992, Gaussian, Inc.),
 the Gaussian 90(TM) system (copyright 1990, Gaussian, Inc.),
 the Gaussian 88(TM) system (copyright 1988, Gaussian, Inc.),
 the Gaussian 86(TM) system (copyright 1986, Carnegie Mellon
 University), and the Gaussian 82(TM) system (copyright 1983,
 Carnegie Mellon University). Gaussian is a federally registered
 trademark of Gaussian, Inc.
  
 This software contains proprietary and confidential information,
 including trade secrets, belonging to Gaussian, Inc.
  
 This software is provided under written license and may be
 used, copied, transmitted, or stored only in accord with that
 written license.
  
 The following legend is applicable only to US Government
 contracts under FAR:
  
                    RESTRICTED RIGHTS LEGEND
  
 Use, reproduction and disclosure by the US Government is
 subject to restrictions as set forth in subparagraphs (a)
 and (c) of the Commercial Computer Software - Restricted
 Rights clause in FAR 52.227-19.
  
 Gaussian, Inc.
 340 Quinnipiac St., Bldg. 40, Wallingford CT 06492
  
  
 ---------------------------------------------------------------
 Warning -- This program may not be used in any manner that
 competes with the business of Gaussian, Inc. or will provide
 assistance to any competitor of Gaussian, Inc.  The licensee
 of this program is prohibited from giving any competitor of
 Gaussian, Inc. access to this program.  By using this program,
 the user acknowledges that Gaussian, Inc. is engaged in the
 business of creating and licensing software in the field of
 computational chemistry and represents and warrants to the
 licensee that it is not a competitor of Gaussian, Inc. and that
 it will not use this program in any manner prohibited above.
 ---------------------------------------------------------------
  

 Cite this work as:
 Gaussian 16, Revision C.01,
 M. J. Frisch, G. W. Trucks, H. B. Schlegel, G. E. Scuseria, 
 M. A. Robb, J. R. Cheeseman, G. Scalmani, V. Barone, 
 G. A. Petersson, H. Nakatsuji, X. Li, M. Caricato, A. V. Marenich, 
 J. Bloino, B. G. Janesko, R. Gomperts, B. Mennucci, H. P. Hratchian, 
 J. V. Ortiz, A. F. Izmaylov, J. L. Sonnenberg, D. Williams-Young, 
 F. Ding, F. Lipparini, F. Egidi, J. Goings, B. Peng, A. Petrone, 
 T. Henderson, D. Ranasinghe, V. G. Zakrzewski, J. Gao, N. Rega, 
 G. Zheng, W. Liang, M. Hada, M. Ehara, K. Toyota, R. Fukuda, 
 J. Hasegawa, M. Ishida, T. Nakajima, Y. Honda, O. Kitao, H. Nakai, 
 T. Vreven, K. Throssell, J. A. Montgomery, Jr., J. E. Peralta, 
 F. Ogliaro, M. J. Bearpark, J. J. Heyd, E. N. Brothers, K. N. Kudin, 
 V. N. Staroverov, T. A. Keith, R. Kobayashi, J. Normand, 
 K. Raghavachari, A. P. Rendell, J. C. Burant, S. S. Iyengar, 
 J. Tomasi, M. Cossi, J. M. Millam, M. Klene, C. Adamo, R. Cammi, 
 J. W. Ochterski, R. L. Martin, K. Morokuma, O. Farkas, 
 J. B. Foresman, and D. J. Fox, Gaussian, Inc., Wallingford CT, 2019.
 
 ******************************************
 Gaussian 16:  ES64L-G16RevC.01  3-Jul-2019
                22-Aug-2025 
 ******************************************
 %mem=10GB
 %nprocs=8
 Will use up to    8 processors via shared memory.
 -----------------------------------------
 # sp b3lyp/6-311g** Force nosymm scf=(qc)
 -----------------------------------------
 1/10=4,30=1,38=1/1,3;
 2/12=2,15=1,17=6,18=5,40=1/2;
 3/5=4,6=6,7=101,11=2,25=1,30=1,71=2,74=-5,140=1/1,2,3;
 4//1;
 5/5=2,8=3,38=5,98=1/8;
 8/6=4,10=90,11=11/1;
 11/6=1,8=1,9=11,15=111,16=1,31=1/1,2,10;
 10/6=1,31=1/2;
 6/7=2,8=2,9=2,10=2,28=1/1;
 7/8=1,10=1,25=1,30=1/1,2,3,16;
 1/10=4,30=1/3;
 99//99;
 -------------------
 Title Card Required
 -------------------
 Symbolic Z-matrix:
 Charge =  0 Multiplicity = 2
 H                     0.        0.        0. 
 H                    -0.7       0.        0. 
 F                     2.6       0.        0. 
 

 GradGradGradGradGradGradGradGradGradGradGradGradGradGradGradGradGradGrad
 Berny optimization.
 Initialization pass.
 Trust Radius=3.00D-01 FncErr=1.00D-07 GrdErr=1.00D-07 EigMax=2.50D+02 EigMin=1.00D-04
 Number of steps in this run=      2 maximum allowed number of steps=      2.
 GradGradGradGradGradGradGradGradGradGradGradGradGradGradGradGradGradGrad

                          Input orientation:                          
 ---------------------------------------------------------------------
 Center     Atomic      Atomic             Coordinates (Angstroms)
 Number     Number       Type             X           Y           Z
 ---------------------------------------------------------------------
      1          1           0        0.000000    0.000000    0.000000
      2          1           0       -0.700000    0.000000    0.000000
      3          9           0        2.600000    0.000000    0.000000
 ---------------------------------------------------------------------
                    Distance matrix (angstroms):
                    1          2          3
     1  H    0.000000
     2  H    0.700000   0.000000
     3  F    2.600000   3.300000   0.000000
 Symmetry turned off by external request.
 Stoichiometry    FH2(2)
 Framework group  C*V[C*(HHF)]
 Deg. of freedom     2
 Full point group                 C*V     NOp   4
 Rotational constants (GHZ):           0.0000000          31.3791339          31.3791339
 Standard basis: 6-311G(d,p) (5D, 7F)
    30 basis functions,    48 primitive gaussians,    31 cartesian basis functions
     6 alpha electrons        5 beta electrons
       nuclear repulsion energy         4.0309452880 Hartrees.
 NAtoms=    3 NActive=    3 NUniq=    3 SFac= 1.00D+00 NAtFMM=   60 NAOKFM=F Big=F
 Integral buffers will be    131072 words long.
 Raffenetti 2 integral format.
 Two-electron integral symmetry is turned off.
 One-electron integrals computed using PRISM.
 NBasis=    30 RedAO= T EigKep=  1.27D-02  NBF=    30
 NBsUse=    30 1.00D-06 EigRej= -1.00D+00 NBFU=    30
 ExpMin= 1.03D-01 ExpMax= 1.14D+04 ExpMxC= 1.72D+03 IAcc=3 IRadAn=         5 AccDes= 0.00D+00
 Harris functional with IExCor=  402 and IRadAn=       5 diagonalized for initial guess.
 HarFok:  IExCor=  402 AccDes= 0.00D+00 IRadAn=         5 IDoV= 1 UseB2=F ITyADJ=14
 ICtDFT=  3500011 ScaDFX=  1.000000  1.000000  1.000000  1.000000
 FoFCou: FMM=F IPFlag=           0 FMFlag=      100000 FMFlg1=           0
         NFxFlg=           0 DoJE=T BraDBF=F KetDBF=T FulRan=T
         wScrn=  0.000000 ICntrl=       500 IOpCl=  0 I1Cent=   200000004 NGrid=           0
         NMat0=    1 NMatS0=      1 NMatT0=    0 NMatD0=    1 NMtDS0=    0 NMtDT0=    0
 Symmetry not used in FoFCou.
 Initial guess <Sx>= 0.0000 <Sy>= 0.0000 <Sz>= 0.5000 <S**2>= 0.7500 S= 0.5000
 Keep R1 and R2 ints in memory in canonical form, NReq=7127049.
 Gradient too large for Newton-Raphson -- use scaled steepest descent instead.
     Minimum is close to point  4 DX=  1.50D-02 DF= -3.25D-06 DXR=  1.84D-02 DFR=  3.42D-04 which will be used.
 Gradient too large for Newton-Raphson -- use scaled steepest descent instead.
     Accept linear search using points  2 and  3.
 Gradient too large for Newton-Raphson -- use scaled steepest descent instead.
     Accept linear search using points  1 and  2.
 LinEq1:  Iter=  0 NonCon=     1 RMS=1.40D-04 Max=1.26D-03 NDo=     1
 AX will form     1 AO Fock derivatives at one time.
 LinEq1:  Iter=  1 NonCon=     1 RMS=7.36D-05 Max=7.14D-04 NDo=     1
 LinEq1:  Iter=  2 NonCon=     1 RMS=1.00D-05 Max=6.96D-05 NDo=     1
 LinEq1:  Iter=  3 NonCon=     1 RMS=6.93D-07 Max=4.95D-06 NDo=     1
 LinEq1:  Iter=  4 NonCon=     1 RMS=1.10D-07 Max=7.78D-07 NDo=     1
 LinEq1:  Iter=  5 NonCon=     1 RMS=2.20D-08 Max=1.53D-07 NDo=     1
 LinEq1:  Iter=  6 NonCon=     1 RMS=9.15D-09 Max=1.32D-07 NDo=     1
 LinEq1:  Iter=  7 NonCon=     1 RMS=2.72D-09 Max=2.54D-08 NDo=     1
 LinEq1:  Iter=  8 NonCon=     0 RMS=3.77D-10 Max=3.30D-09 NDo=     1
 Linear equations converged to 1.640D-09 1.640D-08 after     8 iterations.
     Accept linear search using points  1 and  2.
     Minimum is close to point  2 DX= -5.95D-04 DF= -3.28D-12 DXR=  5.96D-04 DFR=  3.55D-07 which will be used.
 LinEq1:  Iter=  0 NonCon=     1 RMS=5.70D-06 Max=5.02D-05 NDo=     1
 LinEq1:  Iter=  1 NonCon=     1 RMS=1.04D-06 Max=1.06D-05 NDo=     1
 LinEq1:  Iter=  2 NonCon=     1 RMS=1.61D-07 Max=1.40D-06 NDo=     1
 LinEq1:  Iter=  3 NonCon=     1 RMS=4.75D-08 Max=2.96D-07 NDo=     1
 LinEq1:  Iter=  4 NonCon=     1 RMS=2.55D-08 Max=2.24D-07 NDo=     1
 LinEq1:  Iter=  5 NonCon=     1 RMS=1.65D-08 Max=1.92D-07 NDo=     1
 LinEq1:  Iter=  6 NonCon=     1 RMS=5.68D-09 Max=4.40D-08 NDo=     1
 LinEq1:  Iter=  7 NonCon=     0 RMS=7.35D-10 Max=7.14D-09 NDo=     1
 Linear equations converged to 1.640D-09 1.640D-08 after     7 iterations.
     Minimum is close to point  2 DX=  7.60D-03 DF= -6.25D-13 DXR=  7.54D-03 DFR=  5.59D-05 which will be used.
 LinEq1:  Iter=  0 NonCon=     1 RMS=1.65D-07 Max=1.60D-06 NDo=     1
 LinEq1:  Iter=  1 NonCon=     1 RMS=2.69D-08 Max=2.05D-07 NDo=     1
 LinEq1:  Iter=  2 NonCon=     1 RMS=1.13D-08 Max=1.08D-07 NDo=     1
 LinEq1:  Iter=  3 NonCon=     1 RMS=9.02D-09 Max=9.93D-08 NDo=     1
 LinEq1:  Iter=  4 NonCon=     1 RMS=3.10D-09 Max=2.30D-08 NDo=     1
 LinEq1:  Iter=  5 NonCon=     1 RMS=8.30D-10 Max=7.47D-09 NDo=     1
 LinEq1:  Iter=  6 NonCon=     1 RMS=1.25D-10 Max=9.60D-10 NDo=     1
 LinEq1:  Iter=  7 NonCon=     0 RMS=1.87D-11 Max=1.63D-10 NDo=     1
 Linear equations converged to 1.136D-10 1.136D-09 after     7 iterations.
 Incorrect curvature in search direction -- initial direction reversed.
 LinEq1:  Iter=  0 NonCon=     1 RMS=6.23D-07 Max=5.51D-06 NDo=     1
 LinEq1:  Iter=  1 NonCon=     1 RMS=1.36D-07 Max=1.47D-06 NDo=     1
 LinEq1:  Iter=  2 NonCon=     1 RMS=4.53D-08 Max=2.96D-07 NDo=     1
 LinEq1:  Iter=  3 NonCon=     1 RMS=2.28D-08 Max=2.60D-07 NDo=     1
 LinEq1:  Iter=  4 NonCon=     1 RMS=1.29D-08 Max=1.34D-07 NDo=     1
 LinEq1:  Iter=  5 NonCon=     1 RMS=3.41D-09 Max=3.11D-08 NDo=     1
 LinEq1:  Iter=  6 NonCon=     1 RMS=8.66D-10 Max=6.38D-09 NDo=     1
 LinEq1:  Iter=  7 NonCon=     0 RMS=7.49D-11 Max=4.83D-10 NDo=     1
 Linear equations converged to 2.921D-10 2.921D-09 after     7 iterations.
 LinEq1:  Iter=  0 NonCon=     1 RMS=4.18D-07 Max=2.68D-06 NDo=     1
 LinEq1:  Iter=  1 NonCon=     1 RMS=5.43D-08 Max=3.56D-07 NDo=     1
 LinEq1:  Iter=  2 NonCon=     1 RMS=3.59D-08 Max=2.27D-07 NDo=     1
 LinEq1:  Iter=  3 NonCon=     1 RMS=1.54D-08 Max=1.89D-07 NDo=     1
 LinEq1:  Iter=  4 NonCon=     1 RMS=6.21D-09 Max=5.59D-08 NDo=     1
 LinEq1:  Iter=  5 NonCon=     1 RMS=1.92D-09 Max=1.65D-08 NDo=     1
 LinEq1:  Iter=  6 NonCon=     0 RMS=2.78D-10 Max=1.54D-09 NDo=     1
 Linear equations converged to 2.970D-10 2.970D-09 after     6 iterations.
 LinEq1:  Iter=  0 NonCon=     1 RMS=3.85D-07 Max=2.40D-06 NDo=     1
 LinEq1:  Iter=  1 NonCon=     1 RMS=7.28D-08 Max=4.11D-07 NDo=     1
 LinEq1:  Iter=  2 NonCon=     1 RMS=4.77D-08 Max=2.74D-07 NDo=     1
 LinEq1:  Iter=  3 NonCon=     1 RMS=1.70D-08 Max=2.15D-07 NDo=     1
 LinEq1:  Iter=  4 NonCon=     1 RMS=7.57D-09 Max=6.43D-08 NDo=     1
 LinEq1:  Iter=  5 NonCon=     1 RMS=2.44D-09 Max=2.33D-08 NDo=     1
 LinEq1:  Iter=  6 NonCon=     0 RMS=3.99D-10 Max=3.20D-09 NDo=     1
 Linear equations converged to 4.018D-10 4.018D-09 after     6 iterations.
 QCLLim is confused:  Bigger=T Turned=T
 NLin=  3 IMin12=  1  2 I12=  0  2 IX=  1 XLMin= 0.000D+00 XLMax= 0.000D+00
 X = 0.000D+00 1.000D+00 2.000D+00
 DE= 0.000D+00 5.116D-13 4.189D-10
 LinEq1:  Iter=  0 NonCon=     1 RMS=2.84D-07 Max=2.57D-06 NDo=     1
 LinEq1:  Iter=  1 NonCon=     1 RMS=8.87D-08 Max=5.19D-07 NDo=     1
 LinEq1:  Iter=  2 NonCon=     1 RMS=4.94D-08 Max=3.51D-07 NDo=     1
 LinEq1:  Iter=  3 NonCon=     1 RMS=1.74D-08 Max=2.45D-07 NDo=     1
 LinEq1:  Iter=  4 NonCon=     1 RMS=6.72D-09 Max=4.25D-08 NDo=     1
 LinEq1:  Iter=  5 NonCon=     1 RMS=1.41D-09 Max=1.54D-08 NDo=     1
 LinEq1:  Iter=  6 NonCon=     0 RMS=3.65D-10 Max=2.63D-09 NDo=     1
 Linear equations converged to 4.405D-10 4.405D-09 after     6 iterations.
 LinEq1:  Iter=  0 NonCon=     1 RMS=3.72D-07 Max=2.68D-06 NDo=     1
 LinEq1:  Iter=  1 NonCon=     1 RMS=1.26D-07 Max=1.23D-06 NDo=     1
 LinEq1:  Iter=  2 NonCon=     1 RMS=5.92D-08 Max=3.35D-07 NDo=     1
 LinEq1:  Iter=  3 NonCon=     1 RMS=2.03D-08 Max=2.15D-07 NDo=     1
 LinEq1:  Iter=  4 NonCon=     1 RMS=1.12D-08 Max=1.30D-07 NDo=     1
 LinEq1:  Iter=  5 NonCon=     1 RMS=3.02D-09 Max=2.61D-08 NDo=     1
 LinEq1:  Iter=  6 NonCon=     1 RMS=5.86D-10 Max=5.48D-09 NDo=     1
 LinEq1:  Iter=  7 NonCon=     0 RMS=4.40D-11 Max=2.63D-10 NDo=     1
 Linear equations converged to 3.168D-10 3.168D-09 after     7 iterations.
 Incorrect curvature in search direction -- initial direction reversed.
     Minimum is close to point  3 DX= -7.39D-04 DF= -1.42D-14 DXR=  5.10D-02 DFR=  9.17D-03 which will be used.
 LinEq1:  Iter=  0 NonCon=     1 RMS=3.79D-07 Max=2.92D-06 NDo=     1
 LinEq1:  Iter=  1 NonCon=     1 RMS=1.32D-07 Max=1.25D-06 NDo=     1
 LinEq1:  Iter=  2 NonCon=     1 RMS=6.70D-08 Max=4.04D-07 NDo=     1
 LinEq1:  Iter=  3 NonCon=     1 RMS=2.08D-08 Max=2.17D-07 NDo=     1
 LinEq1:  Iter=  4 NonCon=     1 RMS=1.14D-08 Max=1.34D-07 NDo=     1
 LinEq1:  Iter=  5 NonCon=     1 RMS=3.05D-09 Max=2.58D-08 NDo=     1
 LinEq1:  Iter=  6 NonCon=     1 RMS=6.26D-10 Max=5.86D-09 NDo=     1
 LinEq1:  Iter=  7 NonCon=     0 RMS=3.57D-11 Max=3.26D-10 NDo=     1
 Linear equations converged to 3.800D-10 3.800D-09 after     7 iterations.
 LinEq1:  Iter=  0 NonCon=     1 RMS=3.83D-07 Max=3.25D-06 NDo=     1
 LinEq1:  Iter=  1 NonCon=     1 RMS=1.40D-07 Max=1.23D-06 NDo=     1
 LinEq1:  Iter=  2 NonCon=     1 RMS=7.70D-08 Max=5.45D-07 NDo=     1
 LinEq1:  Iter=  3 NonCon=     1 RMS=2.15D-08 Max=2.18D-07 NDo=     1
 LinEq1:  Iter=  4 NonCon=     1 RMS=1.16D-08 Max=1.39D-07 NDo=     1
 LinEq1:  Iter=  5 NonCon=     1 RMS=3.08D-09 Max=2.61D-08 NDo=     1
 LinEq1:  Iter=  6 NonCon=     1 RMS=6.46D-10 Max=6.02D-09 NDo=     1
 LinEq1:  Iter=  7 NonCon=     0 RMS=2.19D-11 Max=2.33D-10 NDo=     1
 Linear equations converged to 4.831D-10 4.831D-09 after     7 iterations.
 LinEq1:  Iter=  0 NonCon=     1 RMS=3.54D-07 Max=2.33D-06 NDo=     1
 LinEq1:  Iter=  1 NonCon=     1 RMS=1.20D-07 Max=8.92D-07 NDo=     1
 LinEq1:  Iter=  2 NonCon=     1 RMS=6.71D-08 Max=5.75D-07 NDo=     1
 LinEq1:  Iter=  3 NonCon=     1 RMS=2.25D-08 Max=2.19D-07 NDo=     1
 LinEq1:  Iter=  4 NonCon=     1 RMS=1.13D-08 Max=1.37D-07 NDo=     1
 LinEq1:  Iter=  5 NonCon=     1 RMS=2.67D-09 Max=1.57D-08 NDo=     1
 LinEq1:  Iter=  6 NonCon=     0 RMS=6.02D-10 Max=4.35D-09 NDo=     1
 Linear equations converged to 6.220D-10 6.220D-09 after     6 iterations.
 LinEq1:  Iter=  0 NonCon=     1 RMS=2.02D-07 Max=1.46D-06 NDo=     1
 LinEq1:  Iter=  1 NonCon=     1 RMS=5.06D-08 Max=3.21D-07 NDo=     1
 LinEq1:  Iter=  2 NonCon=     1 RMS=1.28D-08 Max=1.32D-07 NDo=     1
 LinEq1:  Iter=  3 NonCon=     1 RMS=9.75D-09 Max=1.01D-07 NDo=     1
 LinEq1:  Iter=  4 NonCon=     1 RMS=5.23D-09 Max=3.49D-08 NDo=     1
 LinEq1:  Iter=  5 NonCon=     1 RMS=1.57D-09 Max=1.65D-08 NDo=     1
 LinEq1:  Iter=  6 NonCon=     1 RMS=3.83D-10 Max=3.13D-09 NDo=     1
 LinEq1:  Iter=  7 NonCon=     0 RMS=1.79D-11 Max=2.03D-10 NDo=     1
 Linear equations converged to 7.464D-11 7.464D-10 after     7 iterations.
 LinEq1:  Iter=  0 NonCon=     1 RMS=3.74D-07 Max=4.04D-06 NDo=     1
 LinEq1:  Iter=  1 NonCon=     1 RMS=5.08D-08 Max=3.73D-07 NDo=     1
 LinEq1:  Iter=  2 NonCon=     1 RMS=1.49D-08 Max=1.28D-07 NDo=     1
 LinEq1:  Iter=  3 NonCon=     1 RMS=8.05D-09 Max=9.49D-08 NDo=     1
 LinEq1:  Iter=  4 NonCon=     1 RMS=5.69D-09 Max=3.77D-08 NDo=     1
 LinEq1:  Iter=  5 NonCon=     1 RMS=1.66D-09 Max=1.59D-08 NDo=     1
 LinEq1:  Iter=  6 NonCon=     1 RMS=4.59D-10 Max=4.02D-09 NDo=     1
 LinEq1:  Iter=  7 NonCon=     0 RMS=8.83D-11 Max=6.70D-10 NDo=     1
 Linear equations converged to 2.823D-10 2.823D-09 after     7 iterations.
 LinEq1:  Iter=  0 NonCon=     1 RMS=3.29D-07 Max=2.46D-06 NDo=     1
 LinEq1:  Iter=  1 NonCon=     1 RMS=5.42D-08 Max=4.21D-07 NDo=     1
 LinEq1:  Iter=  2 NonCon=     1 RMS=2.09D-08 Max=1.31D-07 NDo=     1
 LinEq1:  Iter=  3 NonCon=     1 RMS=1.35D-08 Max=1.28D-07 NDo=     1
 LinEq1:  Iter=  4 NonCon=     1 RMS=7.91D-09 Max=9.00D-08 NDo=     1
 LinEq1:  Iter=  5 NonCon=     1 RMS=1.15D-09 Max=8.67D-09 NDo=     1
 LinEq1:  Iter=  6 NonCon=     0 RMS=1.18D-10 Max=7.99D-10 NDo=     1
 Linear equations converged to 1.669D-10 1.669D-09 after     6 iterations.
 LinEq1:  Iter=  0 NonCon=     1 RMS=3.25D-07 Max=2.50D-06 NDo=     1
 LinEq1:  Iter=  1 NonCon=     1 RMS=5.42D-08 Max=3.88D-07 NDo=     1
 LinEq1:  Iter=  2 NonCon=     1 RMS=1.97D-08 Max=1.30D-07 NDo=     1
 LinEq1:  Iter=  3 NonCon=     1 RMS=1.19D-08 Max=1.12D-07 NDo=     1
 LinEq1:  Iter=  4 NonCon=     1 RMS=7.85D-09 Max=8.86D-08 NDo=     1
 LinEq1:  Iter=  5 NonCon=     1 RMS=1.31D-09 Max=1.20D-08 NDo=     1
 LinEq1:  Iter=  6 NonCon=     1 RMS=3.15D-10 Max=2.43D-09 NDo=     1
 LinEq1:  Iter=  7 NonCon=     0 RMS=2.32D-11 Max=1.95D-10 NDo=     1
 Linear equations converged to 1.568D-10 1.568D-09 after     7 iterations.
 LinEq1:  Iter=  0 NonCon=     1 RMS=2.96D-07 Max=2.37D-06 NDo=     1
 LinEq1:  Iter=  1 NonCon=     1 RMS=4.95D-08 Max=3.43D-07 NDo=     1
 LinEq1:  Iter=  2 NonCon=     1 RMS=1.78D-08 Max=1.28D-07 NDo=     1
 LinEq1:  Iter=  3 NonCon=     1 RMS=1.04D-08 Max=1.01D-07 NDo=     1
 LinEq1:  Iter=  4 NonCon=     1 RMS=7.31D-09 Max=7.78D-08 NDo=     1
 LinEq1:  Iter=  5 NonCon=     1 RMS=1.08D-09 Max=9.66D-09 NDo=     1
 LinEq1:  Iter=  6 NonCon=     1 RMS=2.48D-10 Max=1.84D-09 NDo=     1
 LinEq1:  Iter=  7 NonCon=     0 RMS=1.14D-11 Max=9.21D-11 NDo=     1
 Linear equations converged to 1.373D-10 1.373D-09 after     7 iterations.
 Incorrect curvature in search direction -- initial direction reversed.
     Accept linear search using points  1 and  2.
 LinEq1:  Iter=  0 NonCon=     1 RMS=5.33D-07 Max=3.59D-06 NDo=     1
 LinEq1:  Iter=  1 NonCon=     1 RMS=8.43D-08 Max=6.09D-07 NDo=     1
 LinEq1:  Iter=  2 NonCon=     1 RMS=3.01D-08 Max=1.76D-07 NDo=     1
 LinEq1:  Iter=  3 NonCon=     1 RMS=1.80D-08 Max=1.35D-07 NDo=     1
 LinEq1:  Iter=  4 NonCon=     1 RMS=9.29D-09 Max=1.21D-07 NDo=     1
 LinEq1:  Iter=  5 NonCon=     1 RMS=2.81D-09 Max=2.56D-08 NDo=     1
 LinEq1:  Iter=  6 NonCon=     1 RMS=6.67D-10 Max=5.75D-09 NDo=     1
 LinEq1:  Iter=  7 NonCon=     0 RMS=4.54D-11 Max=4.25D-10 NDo=     1
 Linear equations converged to 2.670D-10 2.670D-09 after     7 iterations.
 LinEq1:  Iter=  0 NonCon=     1 RMS=2.79D-07 Max=2.63D-06 NDo=     1
 LinEq1:  Iter=  1 NonCon=     1 RMS=3.05D-08 Max=2.15D-07 NDo=     1
 LinEq1:  Iter=  2 NonCon=     1 RMS=1.56D-08 Max=1.34D-07 NDo=     1
 LinEq1:  Iter=  3 NonCon=     1 RMS=1.10D-08 Max=1.31D-07 NDo=     1
 LinEq1:  Iter=  4 NonCon=     1 RMS=4.99D-09 Max=3.43D-08 NDo=     1
 LinEq1:  Iter=  5 NonCon=     1 RMS=1.14D-09 Max=1.11D-08 NDo=     1
 LinEq1:  Iter=  6 NonCon=     0 RMS=1.93D-10 Max=1.64D-09 NDo=     1
 Linear equations converged to 2.391D-10 2.391D-09 after     6 iterations.
 LinEq1:  Iter=  0 NonCon=     1 RMS=3.30D-07 Max=2.57D-06 NDo=     1
 LinEq1:  Iter=  1 NonCon=     1 RMS=7.32D-08 Max=4.71D-07 NDo=     1
 LinEq1:  Iter=  2 NonCon=     1 RMS=1.95D-08 Max=1.24D-07 NDo=     1
 LinEq1:  Iter=  3 NonCon=     1 RMS=1.19D-08 Max=1.17D-07 NDo=     1
 LinEq1:  Iter=  4 NonCon=     1 RMS=7.61D-09 Max=8.20D-08 NDo=     1
 LinEq1:  Iter=  5 NonCon=     1 RMS=2.18D-09 Max=1.73D-08 NDo=     1
 LinEq1:  Iter=  6 NonCon=     1 RMS=4.47D-10 Max=3.56D-09 NDo=     1
 LinEq1:  Iter=  7 NonCon=     0 RMS=6.26D-11 Max=4.57D-10 NDo=     1
 Linear equations converged to 2.052D-10 2.052D-09 after     7 iterations.
 Incorrect curvature in search direction -- initial direction reversed.
 LinEq1:  Iter=  0 NonCon=     1 RMS=3.37D-07 Max=2.53D-06 NDo=     1
 LinEq1:  Iter=  1 NonCon=     1 RMS=7.47D-08 Max=5.10D-07 NDo=     1
 LinEq1:  Iter=  2 NonCon=     1 RMS=2.09D-08 Max=1.35D-07 NDo=     1
 LinEq1:  Iter=  3 NonCon=     1 RMS=1.28D-08 Max=1.27D-07 NDo=     1
 LinEq1:  Iter=  4 NonCon=     1 RMS=7.95D-09 Max=8.57D-08 NDo=     1
 LinEq1:  Iter=  5 NonCon=     1 RMS=2.33D-09 Max=2.06D-08 NDo=     1
 LinEq1:  Iter=  6 NonCon=     1 RMS=5.57D-10 Max=4.31D-09 NDo=     1
 LinEq1:  Iter=  7 NonCon=     0 RMS=4.66D-11 Max=3.38D-10 NDo=     1
 Linear equations converged to 2.205D-10 2.205D-09 after     7 iterations.
 LinEq1:  Iter=  0 NonCon=     1 RMS=3.69D-07 Max=2.40D-06 NDo=     1
 LinEq1:  Iter=  1 NonCon=     1 RMS=7.86D-08 Max=5.51D-07 NDo=     1
 LinEq1:  Iter=  2 NonCon=     1 RMS=2.70D-08 Max=1.71D-07 NDo=     1
 LinEq1:  Iter=  3 NonCon=     1 RMS=1.55D-08 Max=1.60D-07 NDo=     1
 LinEq1:  Iter=  4 NonCon=     1 RMS=8.60D-09 Max=9.33D-08 NDo=     1
 LinEq1:  Iter=  5 NonCon=     1 RMS=2.54D-09 Max=2.41D-08 NDo=     1
 LinEq1:  Iter=  6 NonCon=     1 RMS=6.45D-10 Max=4.63D-09 NDo=     1
 LinEq1:  Iter=  7 NonCon=     0 RMS=5.30D-11 Max=4.58D-10 NDo=     1
 Linear equations converged to 2.489D-10 2.489D-09 after     7 iterations.
 LinEq1:  Iter=  0 NonCon=     1 RMS=2.43D-07 Max=2.10D-06 NDo=     1
 LinEq1:  Iter=  1 NonCon=     1 RMS=3.44D-08 Max=2.34D-07 NDo=     1
 LinEq1:  Iter=  2 NonCon=     1 RMS=2.31D-08 Max=1.69D-07 NDo=     1
 LinEq1:  Iter=  3 NonCon=     1 RMS=1.14D-08 Max=1.42D-07 NDo=     1
 LinEq1:  Iter=  4 NonCon=     1 RMS=4.46D-09 Max=3.63D-08 NDo=     1
 LinEq1:  Iter=  5 NonCon=     1 RMS=1.10D-09 Max=8.63D-09 NDo=     1
 LinEq1:  Iter=  6 NonCon=     1 RMS=2.23D-10 Max=1.78D-09 NDo=     1
 LinEq1:  Iter=  7 NonCon=     0 RMS=4.59D-11 Max=2.72D-10 NDo=     1
 Linear equations converged to 1.345D-10 1.345D-09 after     7 iterations.
 QCLLim is confused:  Bigger=T Turned=T
 NLin=  3 IMin12=  1  2 I12=  0  2 IX=  1 XLMin= 0.000D+00 XLMax= 0.000D+00
 X = 0.000D+00 1.000D+00 2.000D+00
 DE= 0.000D+00 2.572D-12 1.763D-10
 LinEq1:  Iter=  0 NonCon=     1 RMS=2.14D-07 Max=1.18D-06 NDo=     1
 LinEq1:  Iter=  1 NonCon=     1 RMS=6.72D-08 Max=5.45D-07 NDo=     1
 LinEq1:  Iter=  2 NonCon=     1 RMS=3.78D-08 Max=3.37D-07 NDo=     1
 LinEq1:  Iter=  3 NonCon=     1 RMS=1.40D-08 Max=1.91D-07 NDo=     1
 LinEq1:  Iter=  4 NonCon=     1 RMS=6.03D-09 Max=4.26D-08 NDo=     1
 LinEq1:  Iter=  5 NonCon=     1 RMS=1.21D-09 Max=1.30D-08 NDo=     1
 LinEq1:  Iter=  6 NonCon=     1 RMS=3.36D-10 Max=2.85D-09 NDo=     1
 LinEq1:  Iter=  7 NonCon=     0 RMS=5.68D-11 Max=4.78D-10 NDo=     1
 Linear equations converged to 2.530D-10 2.530D-09 after     7 iterations.
 LinEq1:  Iter=  0 NonCon=     1 RMS=1.96D-07 Max=1.22D-06 NDo=     1
 LinEq1:  Iter=  1 NonCon=     1 RMS=5.08D-08 Max=3.61D-07 NDo=     1
 LinEq1:  Iter=  2 NonCon=     1 RMS=2.73D-08 Max=2.16D-07 NDo=     1
 LinEq1:  Iter=  3 NonCon=     1 RMS=1.37D-08 Max=1.77D-07 NDo=     1
 LinEq1:  Iter=  4 NonCon=     1 RMS=5.32D-09 Max=4.09D-08 NDo=     1
 LinEq1:  Iter=  5 NonCon=     1 RMS=1.42D-09 Max=1.51D-08 NDo=     1
 LinEq1:  Iter=  6 NonCon=     1 RMS=3.42D-10 Max=3.04D-09 NDo=     1
 LinEq1:  Iter=  7 NonCon=     0 RMS=5.97D-11 Max=4.80D-10 NDo=     1
 Linear equations converged to 1.525D-10 1.525D-09 after     7 iterations.
 LinEq1:  Iter=  0 NonCon=     1 RMS=1.95D-07 Max=1.15D-06 NDo=     1
 LinEq1:  Iter=  1 NonCon=     1 RMS=5.31D-08 Max=3.97D-07 NDo=     1
 LinEq1:  Iter=  2 NonCon=     1 RMS=2.99D-08 Max=2.45D-07 NDo=     1
 LinEq1:  Iter=  3 NonCon=     1 RMS=1.37D-08 Max=1.80D-07 NDo=     1
 LinEq1:  Iter=  4 NonCon=     1 RMS=5.43D-09 Max=4.06D-08 NDo=     1
 LinEq1:  Iter=  5 NonCon=     1 RMS=1.44D-09 Max=1.56D-08 NDo=     1
 LinEq1:  Iter=  6 NonCon=     1 RMS=3.51D-10 Max=3.12D-09 NDo=     1
 LinEq1:  Iter=  7 NonCon=     0 RMS=6.06D-11 Max=5.03D-10 NDo=     1
 Linear equations converged to 1.713D-10 1.713D-09 after     7 iterations.
 Search did not lower the energy significantly.
 No lower point found -- try reversing direction.
 Search did not lower the energy significantly.
 No lower point found -- switch to scaled steepest descent.
     Minimum is close to point  2 DX=  1.35D-02 DF= -1.42D-14 DXR=  1.33D-02 DFR=  5.92D-04 which will be used.
 LinEq1:  Iter=  0 NonCon=     1 RMS=5.40D-08 Max=4.49D-07 NDo=     1
 LinEq1:  Iter=  1 NonCon=     1 RMS=3.23D-08 Max=3.13D-07 NDo=     1
 LinEq1:  Iter=  2 NonCon=     1 RMS=1.44D-08 Max=1.69D-07 NDo=     1
 LinEq1:  Iter=  3 NonCon=     1 RMS=7.87D-09 Max=7.69D-08 NDo=     1
 LinEq1:  Iter=  4 NonCon=     1 RMS=1.52D-09 Max=1.64D-08 NDo=     1
 LinEq1:  Iter=  5 NonCon=     1 RMS=3.93D-10 Max=2.93D-09 NDo=     1
 LinEq1:  Iter=  6 NonCon=     1 RMS=6.44D-11 Max=5.36D-10 NDo=     1
 LinEq1:  Iter=  7 NonCon=     0 RMS=4.83D-12 Max=2.67D-11 NDo=     1
 Linear equations converged to 1.710D-11 1.710D-10 after     7 iterations.
 Incorrect curvature in search direction -- initial direction reversed.
 LinEq1:  Iter=  0 NonCon=     1 RMS=1.83D-07 Max=1.12D-06 NDo=     1
 LinEq1:  Iter=  1 NonCon=     1 RMS=1.05D-07 Max=7.26D-07 NDo=     1
 LinEq1:  Iter=  2 NonCon=     1 RMS=2.75D-08 Max=1.94D-07 NDo=     1
 LinEq1:  Iter=  3 NonCon=     1 RMS=1.03D-08 Max=1.43D-07 NDo=     1
 LinEq1:  Iter=  4 NonCon=     1 RMS=3.68D-09 Max=3.13D-08 NDo=     1
 LinEq1:  Iter=  5 NonCon=     1 RMS=6.71D-10 Max=4.54D-09 NDo=     1
 LinEq1:  Iter=  6 NonCon=     0 RMS=9.15D-11 Max=6.11D-10 NDo=     1
 Linear equations converged to 3.902D-10 3.902D-09 after     6 iterations.
 QCLLim is confused:  Bigger=T Turned=T
 NLin=  3 IMin12=  1  2 I12=  0  2 IX=  1 XLMin= 0.000D+00 XLMax= 0.000D+00
 X = 0.000D+00 1.000D+00 2.000D+00
 DE= 0.000D+00 6.344D-11 4.972D-10
 LinEq1:  Iter=  0 NonCon=     1 RMS=2.15D-07 Max=1.11D-06 NDo=     1
 LinEq1:  Iter=  1 NonCon=     1 RMS=9.27D-08 Max=5.50D-07 NDo=     1
 LinEq1:  Iter=  2 NonCon=     1 RMS=5.21D-08 Max=3.42D-07 NDo=     1
 LinEq1:  Iter=  3 NonCon=     1 RMS=1.34D-08 Max=1.37D-07 NDo=     1
 LinEq1:  Iter=  4 NonCon=     1 RMS=6.05D-09 Max=7.28D-08 NDo=     1
 LinEq1:  Iter=  5 NonCon=     1 RMS=1.39D-09 Max=7.04D-09 NDo=     1
 LinEq1:  Iter=  6 NonCon=     0 RMS=7.77D-11 Max=4.57D-10 NDo=     1
 Linear equations converged to 3.471D-10 3.471D-09 after     6 iterations.
 Incorrect curvature in search direction -- initial direction reversed.
 LinEq1:  Iter=  0 NonCon=     1 RMS=2.17D-07 Max=1.23D-06 NDo=     1
 LinEq1:  Iter=  1 NonCon=     1 RMS=9.37D-08 Max=5.42D-07 NDo=     1
 LinEq1:  Iter=  2 NonCon=     1 RMS=5.23D-08 Max=3.15D-07 NDo=     1
 LinEq1:  Iter=  3 NonCon=     1 RMS=1.35D-08 Max=1.37D-07 NDo=     1
 LinEq1:  Iter=  4 NonCon=     1 RMS=6.03D-09 Max=7.23D-08 NDo=     1
 LinEq1:  Iter=  5 NonCon=     1 RMS=1.49D-09 Max=8.86D-09 NDo=     1
 LinEq1:  Iter=  6 NonCon=     0 RMS=1.40D-10 Max=9.84D-10 NDo=     1
 Linear equations converged to 3.541D-10 3.541D-09 after     6 iterations.
 QCLLim is confused:  Bigger=T Turned=T
 NLin=  3 IMin12=  1  2 I12=  0  2 IX=  1 XLMin= 0.000D+00 XLMax= 0.000D+00
 X = 0.000D+00 1.000D+00 2.000D+00
 DE= 0.000D+00 3.506D-11 4.561D-10
 LinEq1:  Iter=  0 NonCon=     1 RMS=2.72D-07 Max=2.22D-06 NDo=     1
 LinEq1:  Iter=  1 NonCon=     1 RMS=7.31D-08 Max=6.91D-07 NDo=     1
 LinEq1:  Iter=  2 NonCon=     1 RMS=2.22D-08 Max=1.40D-07 NDo=     1
 LinEq1:  Iter=  3 NonCon=     1 RMS=1.30D-08 Max=1.51D-07 NDo=     1
 LinEq1:  Iter=  4 NonCon=     1 RMS=5.74D-09 Max=5.59D-08 NDo=     1
 LinEq1:  Iter=  5 NonCon=     1 RMS=1.98D-09 Max=1.30D-08 NDo=     1
 LinEq1:  Iter=  6 NonCon=     1 RMS=2.93D-10 Max=2.09D-09 NDo=     1
 LinEq1:  Iter=  7 NonCon=     0 RMS=3.37D-11 Max=2.78D-10 NDo=     1
 Linear equations converged to 9.324D-11 9.324D-10 after     7 iterations.
 LinEq1:  Iter=  0 NonCon=     1 RMS=2.61D-07 Max=2.12D-06 NDo=     1
 LinEq1:  Iter=  1 NonCon=     1 RMS=7.74D-08 Max=6.67D-07 NDo=     1
 LinEq1:  Iter=  2 NonCon=     1 RMS=3.33D-08 Max=2.33D-07 NDo=     1
 LinEq1:  Iter=  3 NonCon=     1 RMS=1.34D-08 Max=1.65D-07 NDo=     1
 LinEq1:  Iter=  4 NonCon=     1 RMS=5.99D-09 Max=5.60D-08 NDo=     1
 LinEq1:  Iter=  5 NonCon=     1 RMS=1.77D-09 Max=1.15D-08 NDo=     1
 LinEq1:  Iter=  6 NonCon=     1 RMS=3.45D-10 Max=2.04D-09 NDo=     1
 LinEq1:  Iter=  7 NonCon=     0 RMS=3.50D-11 Max=2.22D-10 NDo=     1
 Linear equations converged to 1.845D-10 1.845D-09 after     7 iterations.
 LinEq1:  Iter=  0 NonCon=     1 RMS=2.36D-07 Max=1.85D-06 NDo=     1
 LinEq1:  Iter=  1 NonCon=     1 RMS=8.04D-08 Max=7.14D-07 NDo=     1
 LinEq1:  Iter=  2 NonCon=     1 RMS=3.91D-08 Max=3.11D-07 NDo=     1
 LinEq1:  Iter=  3 NonCon=     1 RMS=1.32D-08 Max=1.69D-07 NDo=     1
 LinEq1:  Iter=  4 NonCon=     1 RMS=6.13D-09 Max=5.47D-08 NDo=     1
 LinEq1:  Iter=  5 NonCon=     1 RMS=1.34D-09 Max=8.49D-09 NDo=     1
 LinEq1:  Iter=  6 NonCon=     0 RMS=2.67D-10 Max=2.18D-09 NDo=     1
 Linear equations converged to 2.708D-10 2.708D-09 after     6 iterations.
 LinEq1:  Iter=  0 NonCon=     1 RMS=1.96D-07 Max=1.60D-06 NDo=     1
 LinEq1:  Iter=  1 NonCon=     1 RMS=5.79D-08 Max=3.77D-07 NDo=     1
 LinEq1:  Iter=  2 NonCon=     1 RMS=3.54D-08 Max=2.42D-07 NDo=     1
 LinEq1:  Iter=  3 NonCon=     1 RMS=1.08D-08 Max=1.34D-07 NDo=     1
 LinEq1:  Iter=  4 NonCon=     1 RMS=5.20D-09 Max=4.92D-08 NDo=     1
 LinEq1:  Iter=  5 NonCon=     1 RMS=1.17D-09 Max=1.00D-08 NDo=     1
 LinEq1:  Iter=  6 NonCon=     1 RMS=3.03D-10 Max=2.12D-09 NDo=     1
 LinEq1:  Iter=  7 NonCon=     0 RMS=2.73D-11 Max=2.75D-10 NDo=     1
 Linear equations converged to 2.499D-10 2.499D-09 after     7 iterations.
 QCLLim is confused:  Bigger=T Turned=T
 NLin=  3 IMin12=  1  2 I12=  0  2 IX=  1 XLMin= 0.000D+00 XLMax= 0.000D+00
 X = 0.000D+00 1.000D+00 2.000D+00
 DE= 0.000D+00 9.305D-11 5.506D-10
 LinEq1:  Iter=  0 NonCon=     1 RMS=1.78D-07 Max=1.22D-06 NDo=     1
 LinEq1:  Iter=  1 NonCon=     1 RMS=6.35D-08 Max=5.02D-07 NDo=     1
 LinEq1:  Iter=  2 NonCon=     1 RMS=3.44D-08 Max=2.51D-07 NDo=     1
 LinEq1:  Iter=  3 NonCon=     1 RMS=1.15D-08 Max=1.42D-07 NDo=     1
 LinEq1:  Iter=  4 NonCon=     1 RMS=5.14D-09 Max=4.62D-08 NDo=     1
 LinEq1:  Iter=  5 NonCon=     1 RMS=1.30D-09 Max=1.13D-08 NDo=     1
 LinEq1:  Iter=  6 NonCon=     0 RMS=3.18D-10 Max=2.72D-09 NDo=     1
 Linear equations converged to 3.360D-10 3.360D-09 after     6 iterations.
 LinEq1:  Iter=  0 NonCon=     1 RMS=1.67D-07 Max=1.43D-06 NDo=     1
 LinEq1:  Iter=  1 NonCon=     1 RMS=5.55D-08 Max=4.80D-07 NDo=     1
 LinEq1:  Iter=  2 NonCon=     1 RMS=2.72D-08 Max=1.83D-07 NDo=     1
 LinEq1:  Iter=  3 NonCon=     1 RMS=1.14D-08 Max=1.39D-07 NDo=     1
 LinEq1:  Iter=  4 NonCon=     1 RMS=5.41D-09 Max=5.05D-08 NDo=     1
 LinEq1:  Iter=  5 NonCon=     1 RMS=1.55D-09 Max=9.16D-09 NDo=     1
 LinEq1:  Iter=  6 NonCon=     1 RMS=3.01D-10 Max=2.13D-09 NDo=     1
 LinEq1:  Iter=  7 NonCon=     0 RMS=2.81D-11 Max=2.20D-10 NDo=     1
 Linear equations converged to 1.926D-10 1.926D-09 after     7 iterations.
 LinEq1:  Iter=  0 NonCon=     1 RMS=1.62D-07 Max=1.20D-06 NDo=     1
 LinEq1:  Iter=  1 NonCon=     1 RMS=6.07D-08 Max=4.99D-07 NDo=     1
 LinEq1:  Iter=  2 NonCon=     1 RMS=3.21D-08 Max=2.13D-07 NDo=     1
 LinEq1:  Iter=  3 NonCon=     1 RMS=1.20D-08 Max=1.43D-07 NDo=     1
 LinEq1:  Iter=  4 NonCon=     1 RMS=5.74D-09 Max=5.50D-08 NDo=     1
 LinEq1:  Iter=  5 NonCon=     1 RMS=1.38D-09 Max=8.99D-09 NDo=     1
 LinEq1:  Iter=  6 NonCon=     0 RMS=2.33D-10 Max=2.16D-09 NDo=     1
 Linear equations converged to 2.664D-10 2.664D-09 after     6 iterations.
 LinEq1:  Iter=  0 NonCon=     1 RMS=2.10D-07 Max=1.94D-06 NDo=     1
 LinEq1:  Iter=  1 NonCon=     1 RMS=5.64D-08 Max=4.69D-07 NDo=     1
 LinEq1:  Iter=  2 NonCon=     1 RMS=3.19D-08 Max=2.38D-07 NDo=     1
 LinEq1:  Iter=  3 NonCon=     1 RMS=1.16D-08 Max=1.39D-07 NDo=     1
 LinEq1:  Iter=  4 NonCon=     1 RMS=5.28D-09 Max=5.13D-08 NDo=     1
 LinEq1:  Iter=  5 NonCon=     1 RMS=1.48D-09 Max=1.26D-08 NDo=     1
 LinEq1:  Iter=  6 NonCon=     1 RMS=3.88D-10 Max=2.80D-09 NDo=     1
 LinEq1:  Iter=  7 NonCon=     0 RMS=4.36D-11 Max=3.33D-10 NDo=     1
 Linear equations converged to 2.036D-10 2.036D-09 after     7 iterations.
 LinEq1:  Iter=  0 NonCon=     1 RMS=2.01D-07 Max=1.83D-06 NDo=     1
 LinEq1:  Iter=  1 NonCon=     1 RMS=5.89D-08 Max=4.95D-07 NDo=     1
 LinEq1:  Iter=  2 NonCon=     1 RMS=3.40D-08 Max=2.56D-07 NDo=     1
 LinEq1:  Iter=  3 NonCon=     1 RMS=1.14D-08 Max=1.40D-07 NDo=     1
 LinEq1:  Iter=  4 NonCon=     1 RMS=5.20D-09 Max=4.82D-08 NDo=     1
 LinEq1:  Iter=  5 NonCon=     1 RMS=1.43D-09 Max=1.22D-08 NDo=     1
 LinEq1:  Iter=  6 NonCon=     1 RMS=3.82D-10 Max=2.94D-09 NDo=     1
 LinEq1:  Iter=  7 NonCon=     0 RMS=4.29D-11 Max=3.45D-10 NDo=     1
 Linear equations converged to 2.434D-10 2.434D-09 after     7 iterations.
 LinEq1:  Iter=  0 NonCon=     1 RMS=1.94D-07 Max=1.72D-06 NDo=     1
 LinEq1:  Iter=  1 NonCon=     1 RMS=6.15D-08 Max=5.12D-07 NDo=     1
 LinEq1:  Iter=  2 NonCon=     1 RMS=3.49D-08 Max=2.65D-07 NDo=     1
 LinEq1:  Iter=  3 NonCon=     1 RMS=1.11D-08 Max=1.41D-07 NDo=     1
 LinEq1:  Iter=  4 NonCon=     1 RMS=5.13D-09 Max=4.50D-08 NDo=     1
 LinEq1:  Iter=  5 NonCon=     1 RMS=1.35D-09 Max=1.17D-08 NDo=     1
 LinEq1:  Iter=  6 NonCon=     1 RMS=3.71D-10 Max=3.03D-09 NDo=     1
 LinEq1:  Iter=  7 NonCon=     0 RMS=3.25D-11 Max=2.63D-10 NDo=     1
 Linear equations converged to 2.802D-10 2.802D-09 after     7 iterations.
 LinEq1:  Iter=  0 NonCon=     1 RMS=1.87D-07 Max=1.55D-06 NDo=     1
 LinEq1:  Iter=  1 NonCon=     1 RMS=6.47D-08 Max=5.08D-07 NDo=     1
 LinEq1:  Iter=  2 NonCon=     1 RMS=3.46D-08 Max=2.67D-07 NDo=     1
 LinEq1:  Iter=  3 NonCon=     1 RMS=1.10D-08 Max=1.42D-07 NDo=     1
 LinEq1:  Iter=  4 NonCon=     1 RMS=5.08D-09 Max=4.24D-08 NDo=     1
 LinEq1:  Iter=  5 NonCon=     1 RMS=1.23D-09 Max=1.15D-08 NDo=     1
 LinEq1:  Iter=  6 NonCon=     1 RMS=3.53D-10 Max=3.15D-09 NDo=     1
 LinEq1:  Iter=  7 NonCon=     0 RMS=9.14D-12 Max=8.35D-11 NDo=     1
 Linear equations converged to 3.263D-10 3.263D-09 after     7 iterations.
 Incorrect curvature in search direction -- initial direction reversed.
 LinEq1:  Iter=  0 NonCon=     1 RMS=2.67D-07 Max=2.05D-06 NDo=     1
 LinEq1:  Iter=  1 NonCon=     1 RMS=8.92D-08 Max=7.71D-07 NDo=     1
 LinEq1:  Iter=  2 NonCon=     1 RMS=4.57D-08 Max=3.50D-07 NDo=     1
 LinEq1:  Iter=  3 NonCon=     1 RMS=1.30D-08 Max=1.38D-07 NDo=     1
 LinEq1:  Iter=  4 NonCon=     1 RMS=6.29D-09 Max=7.20D-08 NDo=     1
 LinEq1:  Iter=  5 NonCon=     1 RMS=1.68D-09 Max=1.28D-08 NDo=     1
 LinEq1:  Iter=  6 NonCon=     1 RMS=4.73D-10 Max=4.38D-09 NDo=     1
 LinEq1:  Iter=  7 NonCon=     0 RMS=8.15D-11 Max=6.10D-10 NDo=     1
 Linear equations converged to 4.435D-10 4.435D-09 after     7 iterations.
 QCLLim is confused:  Bigger=T Turned=T
 NLin=  3 IMin12=  1  2 I12=  0  2 IX=  1 XLMin= 0.000D+00 XLMax= 0.000D+00
 X = 0.000D+00 1.000D+00 2.000D+00
 DE= 0.000D+00 4.081D-11 2.814D-10
 LinEq1:  Iter=  0 NonCon=     1 RMS=2.06D-07 Max=1.24D-06 NDo=     1
 LinEq1:  Iter=  1 NonCon=     1 RMS=8.70D-08 Max=7.17D-07 NDo=     1
 LinEq1:  Iter=  2 NonCon=     1 RMS=3.84D-08 Max=3.09D-07 NDo=     1
 LinEq1:  Iter=  3 NonCon=     1 RMS=1.07D-08 Max=1.34D-07 NDo=     1
 LinEq1:  Iter=  4 NonCon=     1 RMS=5.84D-09 Max=5.58D-08 NDo=     1
 LinEq1:  Iter=  5 NonCon=     1 RMS=7.62D-10 Max=4.56D-09 NDo=     1
 LinEq1:  Iter=  6 NonCon=     0 RMS=1.15D-10 Max=8.16D-10 NDo=     1
 Linear equations converged to 5.017D-10 5.017D-09 after     6 iterations.
 LinEq1:  Iter=  0 NonCon=     1 RMS=2.29D-07 Max=1.82D-06 NDo=     1
 LinEq1:  Iter=  1 NonCon=     1 RMS=5.79D-08 Max=4.90D-07 NDo=     1
 LinEq1:  Iter=  2 NonCon=     1 RMS=3.12D-08 Max=2.47D-07 NDo=     1
 LinEq1:  Iter=  3 NonCon=     1 RMS=1.16D-08 Max=1.33D-07 NDo=     1
 LinEq1:  Iter=  4 NonCon=     1 RMS=5.12D-09 Max=5.44D-08 NDo=     1
 LinEq1:  Iter=  5 NonCon=     1 RMS=8.98D-10 Max=7.62D-09 NDo=     1
 LinEq1:  Iter=  6 NonCon=     1 RMS=2.64D-10 Max=2.62D-09 NDo=     1
 LinEq1:  Iter=  7 NonCon=     0 RMS=4.83D-11 Max=2.84D-10 NDo=     1
 Linear equations converged to 2.416D-10 2.416D-09 after     7 iterations.
 LinEq1:  Iter=  0 NonCon=     1 RMS=2.22D-07 Max=1.75D-06 NDo=     1
 LinEq1:  Iter=  1 NonCon=     1 RMS=5.99D-08 Max=5.12D-07 NDo=     1
 LinEq1:  Iter=  2 NonCon=     1 RMS=3.23D-08 Max=2.55D-07 NDo=     1
 LinEq1:  Iter=  3 NonCon=     1 RMS=1.14D-08 Max=1.34D-07 NDo=     1
 LinEq1:  Iter=  4 NonCon=     1 RMS=5.11D-09 Max=5.26D-08 NDo=     1
 LinEq1:  Iter=  5 NonCon=     1 RMS=9.31D-10 Max=7.61D-09 NDo=     1
 LinEq1:  Iter=  6 NonCon=     1 RMS=2.81D-10 Max=2.95D-09 NDo=     1
 LinEq1:  Iter=  7 NonCon=     0 RMS=5.35D-11 Max=3.18D-10 NDo=     1
 Linear equations converged to 2.687D-10 2.687D-09 after     7 iterations.
 LinEq1:  Iter=  0 NonCon=     1 RMS=2.18D-07 Max=1.69D-06 NDo=     1
 LinEq1:  Iter=  1 NonCon=     1 RMS=6.13D-08 Max=5.27D-07 NDo=     1
 LinEq1:  Iter=  2 NonCon=     1 RMS=3.28D-08 Max=2.58D-07 NDo=     1
 LinEq1:  Iter=  3 NonCon=     1 RMS=1.12D-08 Max=1.34D-07 NDo=     1
 LinEq1:  Iter=  4 NonCon=     1 RMS=5.10D-09 Max=5.13D-08 NDo=     1
 LinEq1:  Iter=  5 NonCon=     1 RMS=9.31D-10 Max=7.21D-09 NDo=     1
 LinEq1:  Iter=  6 NonCon=     1 RMS=2.73D-10 Max=2.96D-09 NDo=     1
 LinEq1:  Iter=  7 NonCon=     0 RMS=5.54D-11 Max=3.36D-10 NDo=     1
 Linear equations converged to 2.866D-10 2.866D-09 after     7 iterations.
 Search did not lower the energy significantly.
 No lower point found -- try reversing direction.
 Search did not lower the energy significantly.
 No lower point found -- switch to scaled steepest descent.
     Minimum is close to point  2 DX= -5.06D-03 DF=  0.00D+00 DXR=  5.09D-03 DFR=  0.00D+00 which will be used.
 LinEq1:  Iter=  0 NonCon=     1 RMS=6.14D-08 Max=5.09D-07 NDo=     1
 LinEq1:  Iter=  1 NonCon=     1 RMS=3.32D-08 Max=2.65D-07 NDo=     1
 LinEq1:  Iter=  2 NonCon=     1 RMS=1.27D-08 Max=1.34D-07 NDo=     1
 LinEq1:  Iter=  3 NonCon=     1 RMS=6.31D-09 Max=7.29D-08 NDo=     1
 LinEq1:  Iter=  4 NonCon=     1 RMS=1.05D-09 Max=8.01D-09 NDo=     1
 LinEq1:  Iter=  5 NonCon=     1 RMS=2.88D-10 Max=3.22D-09 NDo=     1
 LinEq1:  Iter=  6 NonCon=     1 RMS=7.08D-11 Max=5.74D-10 NDo=     1
 LinEq1:  Iter=  7 NonCon=     0 RMS=4.04D-12 Max=2.46D-11 NDo=     1
 Linear equations converged to 2.390D-11 2.390D-10 after     7 iterations.
 LinEq1:  Iter=  0 NonCon=     1 RMS=8.54D-08 Max=5.82D-07 NDo=     1
 LinEq1:  Iter=  1 NonCon=     1 RMS=3.85D-08 Max=2.64D-07 NDo=     1
 LinEq1:  Iter=  2 NonCon=     1 RMS=1.21D-08 Max=1.36D-07 NDo=     1
 LinEq1:  Iter=  3 NonCon=     1 RMS=5.42D-09 Max=6.13D-08 NDo=     1
 LinEq1:  Iter=  4 NonCon=     1 RMS=1.04D-09 Max=1.05D-08 NDo=     1
 LinEq1:  Iter=  5 NonCon=     1 RMS=3.31D-10 Max=2.76D-09 NDo=     1
 LinEq1:  Iter=  6 NonCon=     0 RMS=3.15D-11 Max=1.90D-10 NDo=     1
 Linear equations converged to 2.391D-10 2.391D-09 after     6 iterations.
 LinEq1:  Iter=  0 NonCon=     1 RMS=1.27D-07 Max=8.01D-07 NDo=     1
 LinEq1:  Iter=  1 NonCon=     1 RMS=4.56D-08 Max=3.19D-07 NDo=     1
 LinEq1:  Iter=  2 NonCon=     1 RMS=2.26D-08 Max=1.59D-07 NDo=     1
 LinEq1:  Iter=  3 NonCon=     1 RMS=8.72D-09 Max=1.13D-07 NDo=     1
 LinEq1:  Iter=  4 NonCon=     1 RMS=4.10D-09 Max=3.42D-08 NDo=     1
 LinEq1:  Iter=  5 NonCon=     1 RMS=8.57D-10 Max=5.46D-09 NDo=     1
 LinEq1:  Iter=  6 NonCon=     1 RMS=2.17D-10 Max=1.59D-09 NDo=     1
 LinEq1:  Iter=  7 NonCon=     0 RMS=3.96D-11 Max=2.80D-10 NDo=     1
 Linear equations converged to 2.139D-10 2.139D-09 after     7 iterations.
 LinEq1:  Iter=  0 NonCon=     1 RMS=1.25D-07 Max=1.05D-06 NDo=     1
 LinEq1:  Iter=  1 NonCon=     1 RMS=3.53D-08 Max=2.73D-07 NDo=     1
 LinEq1:  Iter=  2 NonCon=     1 RMS=1.76D-08 Max=1.10D-07 NDo=     1
 LinEq1:  Iter=  3 NonCon=     1 RMS=8.83D-09 Max=1.05D-07 NDo=     1
 LinEq1:  Iter=  4 NonCon=     1 RMS=3.90D-09 Max=3.68D-08 NDo=     1
 LinEq1:  Iter=  5 NonCon=     1 RMS=1.10D-09 Max=7.93D-09 NDo=     1
 LinEq1:  Iter=  6 NonCon=     1 RMS=2.44D-10 Max=1.51D-09 NDo=     1
 LinEq1:  Iter=  7 NonCon=     0 RMS=3.48D-11 Max=2.04D-10 NDo=     1
 Linear equations converged to 1.246D-10 1.246D-09 after     7 iterations.
 LinEq1:  Iter=  0 NonCon=     1 RMS=2.56D-07 Max=1.72D-06 NDo=     1
 LinEq1:  Iter=  1 NonCon=     1 RMS=9.71D-08 Max=7.61D-07 NDo=     1
 LinEq1:  Iter=  2 NonCon=     1 RMS=4.37D-08 Max=3.25D-07 NDo=     1
 LinEq1:  Iter=  3 NonCon=     1 RMS=1.10D-08 Max=1.15D-07 NDo=     1
 LinEq1:  Iter=  4 NonCon=     1 RMS=4.79D-09 Max=5.45D-08 NDo=     1
 LinEq1:  Iter=  5 NonCon=     1 RMS=1.51D-09 Max=9.13D-09 NDo=     1
 LinEq1:  Iter=  6 NonCon=     0 RMS=1.79D-10 Max=1.65D-09 NDo=     1
 Linear equations converged to 5.709D-10 5.709D-09 after     6 iterations.
 LinEq1:  Iter=  0 NonCon=     1 RMS=1.69D-07 Max=1.56D-06 NDo=     1
 LinEq1:  Iter=  1 NonCon=     1 RMS=3.08D-08 Max=2.09D-07 NDo=     1
 LinEq1:  Iter=  2 NonCon=     1 RMS=2.00D-08 Max=1.30D-07 NDo=     1
 LinEq1:  Iter=  3 NonCon=     1 RMS=7.43D-09 Max=8.49D-08 NDo=     1
 LinEq1:  Iter=  4 NonCon=     1 RMS=3.68D-09 Max=3.71D-08 NDo=     1
 LinEq1:  Iter=  5 NonCon=     1 RMS=1.09D-09 Max=7.32D-09 NDo=     1
 LinEq1:  Iter=  6 NonCon=     1 RMS=2.33D-10 Max=1.32D-09 NDo=     1
 LinEq1:  Iter=  7 NonCon=     0 RMS=3.64D-11 Max=2.03D-10 NDo=     1
 Linear equations converged to 1.158D-10 1.158D-09 after     7 iterations.
 QCLLim is confused:  Bigger=T Turned=T
 NLin=  3 IMin12=  1  2 I12=  0  2 IX=  1 XLMin= 0.000D+00 XLMax= 0.000D+00
 X = 0.000D+00 1.000D+00 2.000D+00
 DE= 0.000D+00 8.023D-11 3.801D-10
 LinEq1:  Iter=  0 NonCon=     1 RMS=1.51D-07 Max=1.15D-06 NDo=     1
 LinEq1:  Iter=  1 NonCon=     1 RMS=3.95D-08 Max=2.45D-07 NDo=     1
 LinEq1:  Iter=  2 NonCon=     1 RMS=2.31D-08 Max=1.32D-07 NDo=     1
 LinEq1:  Iter=  3 NonCon=     1 RMS=8.00D-09 Max=9.36D-08 NDo=     1
 LinEq1:  Iter=  4 NonCon=     1 RMS=4.06D-09 Max=3.94D-08 NDo=     1
 LinEq1:  Iter=  5 NonCon=     1 RMS=1.29D-09 Max=6.30D-09 NDo=     1
 LinEq1:  Iter=  6 NonCon=     1 RMS=1.83D-10 Max=1.49D-09 NDo=     1
 LinEq1:  Iter=  7 NonCon=     0 RMS=1.89D-11 Max=1.36D-10 NDo=     1
 Linear equations converged to 1.774D-10 1.774D-09 after     7 iterations.
 QCLLim is confused:  Bigger=T Turned=T
 NLin=  3 IMin12=  1  2 I12=  0  2 IX=  1 XLMin= 0.000D+00 XLMax= 0.000D+00
 X = 0.000D+00 1.000D+00 2.000D+00
 DE= 0.000D+00 2.262D-11 2.467D-10
 LinEq1:  Iter=  0 NonCon=     1 RMS=2.14D-07 Max=1.25D-06 NDo=     1
 LinEq1:  Iter=  1 NonCon=     1 RMS=5.55D-08 Max=4.30D-07 NDo=     1
 LinEq1:  Iter=  2 NonCon=     1 RMS=2.12D-08 Max=1.60D-07 NDo=     1
 LinEq1:  Iter=  3 NonCon=     1 RMS=9.93D-09 Max=1.15D-07 NDo=     1
 LinEq1:  Iter=  4 NonCon=     1 RMS=5.12D-09 Max=5.31D-08 NDo=     1
 LinEq1:  Iter=  5 NonCon=     1 RMS=1.22D-09 Max=7.28D-09 NDo=     1
 LinEq1:  Iter=  6 NonCon=     1 RMS=3.51D-10 Max=2.09D-09 NDo=     1
 LinEq1:  Iter=  7 NonCon=     0 RMS=5.72D-11 Max=4.38D-10 NDo=     1
 Linear equations converged to 1.808D-10 1.808D-09 after     7 iterations.
 LinEq1:  Iter=  0 NonCon=     1 RMS=1.11D-06 Max=8.36D-06 NDo=     1
 LinEq1:  Iter=  1 NonCon=     1 RMS=3.50D-07 Max=2.20D-06 NDo=     1
 LinEq1:  Iter=  2 NonCon=     1 RMS=1.62D-07 Max=1.15D-06 NDo=     1
 LinEq1:  Iter=  3 NonCon=     1 RMS=6.42D-08 Max=3.76D-07 NDo=     1
 LinEq1:  Iter=  4 NonCon=     1 RMS=1.98D-08 Max=1.76D-07 NDo=     1
 LinEq1:  Iter=  5 NonCon=     1 RMS=9.05D-09 Max=5.36D-08 NDo=     1
 LinEq1:  Iter=  6 NonCon=     1 RMS=2.07D-09 Max=1.19D-08 NDo=     1
 LinEq1:  Iter=  7 NonCon=     0 RMS=4.11D-10 Max=2.51D-09 NDo=     1
 Linear equations converged to 1.594D-09 1.594D-08 after     7 iterations.
     Minimum is close to point  2 DX=  1.74D-02 DF= -3.13D-13 DXR=  1.71D-02 DFR=  2.84D-04 which will be used.
 LinEq1:  Iter=  0 NonCon=     1 RMS=6.28D-08 Max=3.83D-07 NDo=     1
 LinEq1:  Iter=  1 NonCon=     1 RMS=2.21D-08 Max=1.64D-07 NDo=     1
 LinEq1:  Iter=  2 NonCon=     1 RMS=1.25D-08 Max=1.07D-07 NDo=     1
 LinEq1:  Iter=  3 NonCon=     1 RMS=7.38D-09 Max=9.14D-08 NDo=     1
 LinEq1:  Iter=  4 NonCon=     1 RMS=2.33D-09 Max=1.62D-08 NDo=     1
 LinEq1:  Iter=  5 NonCon=     1 RMS=4.13D-10 Max=2.64D-09 NDo=     1
 LinEq1:  Iter=  6 NonCon=     1 RMS=9.66D-11 Max=8.38D-10 NDo=     1
 LinEq1:  Iter=  7 NonCon=     0 RMS=2.38D-11 Max=1.51D-10 NDo=     1
 Linear equations converged to 8.736D-11 8.736D-10 after     7 iterations.
 LinEq1:  Iter=  0 NonCon=     1 RMS=1.07D-07 Max=6.76D-07 NDo=     1
 LinEq1:  Iter=  1 NonCon=     1 RMS=4.09D-08 Max=2.55D-07 NDo=     1
 LinEq1:  Iter=  2 NonCon=     1 RMS=3.04D-08 Max=2.61D-07 NDo=     1
 LinEq1:  Iter=  3 NonCon=     1 RMS=1.70D-08 Max=1.32D-07 NDo=     1
 LinEq1:  Iter=  4 NonCon=     1 RMS=5.10D-09 Max=3.09D-08 NDo=     1
 LinEq1:  Iter=  5 NonCon=     1 RMS=9.51D-10 Max=6.48D-09 NDo=     1
 LinEq1:  Iter=  6 NonCon=     0 RMS=1.60D-10 Max=1.16D-09 NDo=     1
 Linear equations converged to 1.659D-10 1.659D-09 after     6 iterations.
 LinEq1:  Iter=  0 NonCon=     1 RMS=2.63D-08 Max=1.90D-07 NDo=     1
 LinEq1:  Iter=  1 NonCon=     1 RMS=9.46D-09 Max=8.11D-08 NDo=     1
 LinEq1:  Iter=  2 NonCon=     1 RMS=3.98D-09 Max=5.11D-08 NDo=     1
 LinEq1:  Iter=  3 NonCon=     1 RMS=7.80D-10 Max=4.63D-09 NDo=     1
 LinEq1:  Iter=  4 NonCon=     1 RMS=2.59D-10 Max=1.71D-09 NDo=     1
 LinEq1:  Iter=  5 NonCon=     1 RMS=1.29D-10 Max=8.22D-10 NDo=     1
 LinEq1:  Iter=  6 NonCon=     1 RMS=4.98D-11 Max=3.77D-10 NDo=     1
 LinEq1:  Iter=  7 NonCon=     0 RMS=6.56D-12 Max=6.95D-11 NDo=     1
 Linear equations converged to 8.960D-12 8.960D-11 after     7 iterations.
 LinEq1:  Iter=  0 NonCon=     1 RMS=2.58D-08 Max=2.72D-07 NDo=     1
 LinEq1:  Iter=  1 NonCon=     1 RMS=1.21D-08 Max=8.28D-08 NDo=     1
 LinEq1:  Iter=  2 NonCon=     1 RMS=9.37D-09 Max=6.92D-08 NDo=     1
 LinEq1:  Iter=  3 NonCon=     1 RMS=1.37D-09 Max=1.11D-08 NDo=     1
 LinEq1:  Iter=  4 NonCon=     1 RMS=3.34D-10 Max=2.59D-09 NDo=     1
 LinEq1:  Iter=  5 NonCon=     1 RMS=7.90D-11 Max=6.49D-10 NDo=     1
 LinEq1:  Iter=  6 NonCon=     1 RMS=2.71D-11 Max=3.36D-10 NDo=     1
 LinEq1:  Iter=  7 NonCon=     0 RMS=1.06D-11 Max=9.64D-11 NDo=     1
 Linear equations converged to 2.868D-11 2.868D-10 after     7 iterations.
 LinEq1:  Iter=  0 NonCon=     1 RMS=1.38D-08 Max=1.26D-07 NDo=     1
 LinEq1:  Iter=  1 NonCon=     1 RMS=6.32D-09 Max=7.09D-08 NDo=     1
 LinEq1:  Iter=  2 NonCon=     1 RMS=2.63D-09 Max=2.51D-08 NDo=     1
 LinEq1:  Iter=  3 NonCon=     1 RMS=6.70D-10 Max=3.26D-09 NDo=     1
 LinEq1:  Iter=  4 NonCon=     1 RMS=2.09D-10 Max=1.54D-09 NDo=     1
 LinEq1:  Iter=  5 NonCon=     1 RMS=9.59D-11 Max=8.47D-10 NDo=     1
 LinEq1:  Iter=  6 NonCon=     1 RMS=2.51D-11 Max=1.44D-10 NDo=     1
 LinEq1:  Iter=  7 NonCon=     1 RMS=7.48D-12 Max=7.55D-11 NDo=     1
 LinEq1:  Iter=  8 NonCon=     0 RMS=3.68D-12 Max=2.07D-11 NDo=     1
 Linear equations converged to 4.799D-12 4.799D-11 after     8 iterations.
 LinEq1:  Iter=  0 NonCon=     1 RMS=4.91D-08 Max=2.69D-07 NDo=     1
 LinEq1:  Iter=  1 NonCon=     1 RMS=2.45D-08 Max=2.54D-07 NDo=     1
 LinEq1:  Iter=  2 NonCon=     1 RMS=7.37D-09 Max=4.84D-08 NDo=     1
 LinEq1:  Iter=  3 NonCon=     1 RMS=2.04D-09 Max=2.11D-08 NDo=     1
 LinEq1:  Iter=  4 NonCon=     1 RMS=8.62D-10 Max=5.66D-09 NDo=     1
 LinEq1:  Iter=  5 NonCon=     1 RMS=2.66D-10 Max=1.49D-09 NDo=     1
 LinEq1:  Iter=  6 NonCon=     1 RMS=6.08D-11 Max=6.29D-10 NDo=     1
 LinEq1:  Iter=  7 NonCon=     1 RMS=2.72D-11 Max=2.90D-10 NDo=     1
 LinEq1:  Iter=  8 NonCon=     0 RMS=1.12D-11 Max=1.04D-10 NDo=     1
 Linear equations converged to 1.783D-11 1.783D-10 after     8 iterations.
 LinEq1:  Iter=  0 NonCon=     1 RMS=1.46D-08 Max=1.36D-07 NDo=     1
 LinEq1:  Iter=  1 NonCon=     1 RMS=6.39D-09 Max=6.62D-08 NDo=     1
 LinEq1:  Iter=  2 NonCon=     1 RMS=2.79D-09 Max=2.96D-08 NDo=     1
 LinEq1:  Iter=  3 NonCon=     1 RMS=8.53D-10 Max=3.88D-09 NDo=     1
 LinEq1:  Iter=  4 NonCon=     1 RMS=4.22D-10 Max=2.99D-09 NDo=     1
 LinEq1:  Iter=  5 NonCon=     1 RMS=1.43D-10 Max=1.13D-09 NDo=     1
 LinEq1:  Iter=  6 NonCon=     1 RMS=2.96D-11 Max=1.97D-10 NDo=     1
 LinEq1:  Iter=  7 NonCon=     1 RMS=7.41D-12 Max=7.03D-11 NDo=     1
 LinEq1:  Iter=  8 NonCon=     0 RMS=4.03D-12 Max=2.81D-11 NDo=     1
 Linear equations converged to 5.121D-12 5.121D-11 after     8 iterations.
 LinEq1:  Iter=  0 NonCon=     1 RMS=3.67D-08 Max=2.53D-07 NDo=     1
 LinEq1:  Iter=  1 NonCon=     1 RMS=2.14D-08 Max=2.04D-07 NDo=     1
 LinEq1:  Iter=  2 NonCon=     1 RMS=5.85D-09 Max=3.74D-08 NDo=     1
 LinEq1:  Iter=  3 NonCon=     1 RMS=1.14D-09 Max=7.09D-09 NDo=     1
 LinEq1:  Iter=  4 NonCon=     1 RMS=2.86D-10 Max=1.57D-09 NDo=     1
 LinEq1:  Iter=  5 NonCon=     1 RMS=1.34D-10 Max=7.71D-10 NDo=     1
 LinEq1:  Iter=  6 NonCon=     1 RMS=5.59D-11 Max=5.76D-10 NDo=     1
 LinEq1:  Iter=  7 NonCon=     1 RMS=2.30D-11 Max=2.46D-10 NDo=     1
 LinEq1:  Iter=  8 NonCon=     0 RMS=9.47D-12 Max=8.84D-11 NDo=     1
 Linear equations converged to 1.136D-11 1.136D-10 after     8 iterations.
 LinEq1:  Iter=  0 NonCon=     1 RMS=1.57D-08 Max=1.47D-07 NDo=     1
 LinEq1:  Iter=  1 NonCon=     1 RMS=6.71D-09 Max=7.07D-08 NDo=     1
 LinEq1:  Iter=  2 NonCon=     1 RMS=2.62D-09 Max=2.80D-08 NDo=     1
 LinEq1:  Iter=  3 NonCon=     1 RMS=7.35D-10 Max=3.92D-09 NDo=     1
 LinEq1:  Iter=  4 NonCon=     1 RMS=1.80D-10 Max=1.09D-09 NDo=     1
 LinEq1:  Iter=  5 NonCon=     1 RMS=7.80D-11 Max=6.47D-10 NDo=     1
 LinEq1:  Iter=  6 NonCon=     1 RMS=2.43D-11 Max=2.28D-10 NDo=     1
 LinEq1:  Iter=  7 NonCon=     1 RMS=7.23D-12 Max=6.69D-11 NDo=     1
 LinEq1:  Iter=  8 NonCon=     0 RMS=4.25D-12 Max=3.12D-11 NDo=     1
 Linear equations converged to 4.604D-12 4.604D-11 after     8 iterations.
 LinEq1:  Iter=  0 NonCon=     1 RMS=3.40D-08 Max=2.44D-07 NDo=     1
 LinEq1:  Iter=  1 NonCon=     1 RMS=2.02D-08 Max=1.86D-07 NDo=     1
 LinEq1:  Iter=  2 NonCon=     1 RMS=5.85D-09 Max=5.77D-08 NDo=     1
 LinEq1:  Iter=  3 NonCon=     1 RMS=1.83D-09 Max=1.34D-08 NDo=     1
 LinEq1:  Iter=  4 NonCon=     1 RMS=7.67D-10 Max=4.94D-09 NDo=     1
 LinEq1:  Iter=  5 NonCon=     1 RMS=1.91D-10 Max=1.11D-09 NDo=     1
 LinEq1:  Iter=  6 NonCon=     1 RMS=5.41D-11 Max=5.75D-10 NDo=     1
 LinEq1:  Iter=  7 NonCon=     1 RMS=2.11D-11 Max=2.23D-10 NDo=     1
 LinEq1:  Iter=  8 NonCon=     0 RMS=8.69D-12 Max=8.30D-11 NDo=     1
 Linear equations converged to 9.689D-12 9.689D-11 after     8 iterations.
 LinEq1:  Iter=  0 NonCon=     1 RMS=1.59D-08 Max=1.52D-07 NDo=     1
 LinEq1:  Iter=  1 NonCon=     1 RMS=6.64D-09 Max=6.98D-08 NDo=     1
 LinEq1:  Iter=  2 NonCon=     1 RMS=2.63D-09 Max=2.79D-08 NDo=     1
 LinEq1:  Iter=  3 NonCon=     1 RMS=1.00D-09 Max=5.74D-09 NDo=     1
 LinEq1:  Iter=  4 NonCon=     1 RMS=4.51D-10 Max=3.20D-09 NDo=     1
 LinEq1:  Iter=  5 NonCon=     1 RMS=1.39D-10 Max=8.94D-10 NDo=     1
 LinEq1:  Iter=  6 NonCon=     1 RMS=2.44D-11 Max=1.89D-10 NDo=     1
 LinEq1:  Iter=  7 NonCon=     1 RMS=7.01D-12 Max=6.54D-11 NDo=     1
 LinEq1:  Iter=  8 NonCon=     1 RMS=4.18D-12 Max=3.19D-11 NDo=     1
 LinEq1:  Iter=  9 NonCon=     0 RMS=3.40D-13 Max=1.77D-12 NDo=     1
 Linear equations converged to 4.077D-12 4.077D-11 after     9 iterations.
 LinEq1:  Iter=  0 NonCon=     1 RMS=7.95D-09 Max=7.40D-08 NDo=     1
 LinEq1:  Iter=  1 NonCon=     1 RMS=3.39D-09 Max=4.46D-08 NDo=     1
 LinEq1:  Iter=  2 NonCon=     1 RMS=7.27D-10 Max=4.60D-09 NDo=     1
 LinEq1:  Iter=  3 NonCon=     1 RMS=2.79D-10 Max=2.01D-09 NDo=     1
 LinEq1:  Iter=  4 NonCon=     1 RMS=1.03D-10 Max=6.76D-10 NDo=     1
 LinEq1:  Iter=  5 NonCon=     1 RMS=1.80D-11 Max=1.11D-10 NDo=     1
 LinEq1:  Iter=  6 NonCon=     1 RMS=4.83D-12 Max=4.56D-11 NDo=     1
 LinEq1:  Iter=  7 NonCon=     1 RMS=2.40D-12 Max=1.94D-11 NDo=     1
 LinEq1:  Iter=  8 NonCon=     0 RMS=6.84D-13 Max=4.31D-12 NDo=     1
 Linear equations converged to 2.347D-12 2.347D-11 after     8 iterations.
 LinEq1:  Iter=  0 NonCon=     1 RMS=1.02D-08 Max=6.70D-08 NDo=     1
 LinEq1:  Iter=  1 NonCon=     1 RMS=4.69D-09 Max=4.50D-08 NDo=     1
 LinEq1:  Iter=  2 NonCon=     1 RMS=2.67D-09 Max=1.88D-08 NDo=     1
 LinEq1:  Iter=  3 NonCon=     1 RMS=1.54D-09 Max=7.15D-09 NDo=     1
 LinEq1:  Iter=  4 NonCon=     1 RMS=5.01D-10 Max=4.20D-09 NDo=     1
 LinEq1:  Iter=  5 NonCon=     1 RMS=6.76D-11 Max=3.55D-10 NDo=     1
 LinEq1:  Iter=  6 NonCon=     1 RMS=1.73D-11 Max=1.53D-10 NDo=     1
 LinEq1:  Iter=  7 NonCon=     1 RMS=8.56D-12 Max=6.13D-11 NDo=     1
 LinEq1:  Iter=  8 NonCon=     0 RMS=1.84D-12 Max=1.10D-11 NDo=     1
 Linear equations converged to 2.492D-12 2.492D-11 after     8 iterations.
 LinEq1:  Iter=  0 NonCon=     1 RMS=5.59D-08 Max=3.48D-07 NDo=     1
 LinEq1:  Iter=  1 NonCon=     1 RMS=1.48D-08 Max=1.06D-07 NDo=     1
 LinEq1:  Iter=  2 NonCon=     1 RMS=7.95D-09 Max=6.38D-08 NDo=     1
 LinEq1:  Iter=  3 NonCon=     1 RMS=2.52D-09 Max=1.72D-08 NDo=     1
 LinEq1:  Iter=  4 NonCon=     1 RMS=1.22D-09 Max=9.72D-09 NDo=     1
 LinEq1:  Iter=  5 NonCon=     1 RMS=2.56D-10 Max=1.48D-09 NDo=     1
 LinEq1:  Iter=  6 NonCon=     1 RMS=5.76D-11 Max=4.77D-10 NDo=     1
 LinEq1:  Iter=  7 NonCon=     1 RMS=2.97D-11 Max=3.23D-10 NDo=     1
 LinEq1:  Iter=  8 NonCon=     0 RMS=8.65D-12 Max=5.37D-11 NDo=     1
 Linear equations converged to 1.684D-11 1.684D-10 after     8 iterations.
 LinEq1:  Iter=  0 NonCon=     1 RMS=1.68D-08 Max=1.03D-07 NDo=     1
 LinEq1:  Iter=  1 NonCon=     1 RMS=7.00D-09 Max=5.70D-08 NDo=     1
 LinEq1:  Iter=  2 NonCon=     1 RMS=3.27D-09 Max=3.30D-08 NDo=     1
 LinEq1:  Iter=  3 NonCon=     1 RMS=1.15D-09 Max=6.76D-09 NDo=     1
 LinEq1:  Iter=  4 NonCon=     1 RMS=5.73D-10 Max=3.62D-09 NDo=     1
 LinEq1:  Iter=  5 NonCon=     1 RMS=1.50D-10 Max=8.35D-10 NDo=     1
 LinEq1:  Iter=  6 NonCon=     1 RMS=3.25D-11 Max=1.70D-10 NDo=     1
 LinEq1:  Iter=  7 NonCon=     1 RMS=1.34D-11 Max=1.33D-10 NDo=     1
 LinEq1:  Iter=  8 NonCon=     0 RMS=3.92D-12 Max=2.28D-11 NDo=     1
 Linear equations converged to 4.855D-12 4.855D-11 after     8 iterations.
 LinEq1:  Iter=  0 NonCon=     1 RMS=3.93D-08 Max=2.35D-07 NDo=     1
 LinEq1:  Iter=  1 NonCon=     1 RMS=1.41D-08 Max=1.25D-07 NDo=     1
 LinEq1:  Iter=  2 NonCon=     1 RMS=7.21D-09 Max=4.79D-08 NDo=     1
 LinEq1:  Iter=  3 NonCon=     1 RMS=1.78D-09 Max=1.40D-08 NDo=     1
 LinEq1:  Iter=  4 NonCon=     1 RMS=8.86D-10 Max=5.56D-09 NDo=     1
 LinEq1:  Iter=  5 NonCon=     1 RMS=2.28D-10 Max=1.85D-09 NDo=     1
 LinEq1:  Iter=  6 NonCon=     1 RMS=5.74D-11 Max=5.47D-10 NDo=     1
 LinEq1:  Iter=  7 NonCon=     1 RMS=2.59D-11 Max=2.60D-10 NDo=     1
 LinEq1:  Iter=  8 NonCon=     0 RMS=8.65D-12 Max=5.59D-11 NDo=     1
 Linear equations converged to 1.267D-11 1.267D-10 after     8 iterations.
 LinEq1:  Iter=  0 NonCon=     1 RMS=1.53D-08 Max=9.93D-08 NDo=     1
 LinEq1:  Iter=  1 NonCon=     1 RMS=6.71D-09 Max=5.65D-08 NDo=     1
 LinEq1:  Iter=  2 NonCon=     1 RMS=3.08D-09 Max=3.37D-08 NDo=     1
 LinEq1:  Iter=  3 NonCon=     1 RMS=9.89D-10 Max=6.03D-09 NDo=     1
 LinEq1:  Iter=  4 NonCon=     1 RMS=4.57D-10 Max=3.10D-09 NDo=     1
 LinEq1:  Iter=  5 NonCon=     1 RMS=1.40D-10 Max=7.05D-10 NDo=     1
 LinEq1:  Iter=  6 NonCon=     1 RMS=3.35D-11 Max=2.39D-10 NDo=     1
 LinEq1:  Iter=  7 NonCon=     1 RMS=1.12D-11 Max=1.15D-10 NDo=     1
 LinEq1:  Iter=  8 NonCon=     0 RMS=3.97D-12 Max=2.06D-11 NDo=     1
 Linear equations converged to 5.112D-12 5.112D-11 after     8 iterations.
 LinEq1:  Iter=  0 NonCon=     1 RMS=3.16D-08 Max=1.69D-07 NDo=     1
 LinEq1:  Iter=  1 NonCon=     1 RMS=1.48D-08 Max=1.31D-07 NDo=     1
 LinEq1:  Iter=  2 NonCon=     1 RMS=7.00D-09 Max=6.30D-08 NDo=     1
 LinEq1:  Iter=  3 NonCon=     1 RMS=1.37D-09 Max=6.91D-09 NDo=     1
 LinEq1:  Iter=  4 NonCon=     1 RMS=6.59D-10 Max=3.72D-09 NDo=     1
 LinEq1:  Iter=  5 NonCon=     1 RMS=1.94D-10 Max=1.35D-09 NDo=     1
 LinEq1:  Iter=  6 NonCon=     1 RMS=5.84D-11 Max=5.27D-10 NDo=     1
 LinEq1:  Iter=  7 NonCon=     1 RMS=2.33D-11 Max=2.47D-10 NDo=     1
 LinEq1:  Iter=  8 NonCon=     0 RMS=8.83D-12 Max=6.50D-11 NDo=     1
 Linear equations converged to 1.202D-11 1.202D-10 after     8 iterations.
 LinEq1:  Iter=  0 NonCon=     1 RMS=1.43D-08 Max=1.08D-07 NDo=     1
 LinEq1:  Iter=  1 NonCon=     1 RMS=6.43D-09 Max=6.00D-08 NDo=     1
 LinEq1:  Iter=  2 NonCon=     1 RMS=2.88D-09 Max=2.93D-08 NDo=     1
 LinEq1:  Iter=  3 NonCon=     1 RMS=1.03D-09 Max=7.19D-09 NDo=     1
 LinEq1:  Iter=  4 NonCon=     1 RMS=4.95D-10 Max=2.66D-09 NDo=     1
 LinEq1:  Iter=  5 NonCon=     1 RMS=1.28D-10 Max=5.23D-10 NDo=     1
 LinEq1:  Iter=  6 NonCon=     1 RMS=3.36D-11 Max=2.97D-10 NDo=     1
 LinEq1:  Iter=  7 NonCon=     1 RMS=1.09D-11 Max=1.13D-10 NDo=     1
 LinEq1:  Iter=  8 NonCon=     0 RMS=4.09D-12 Max=1.97D-11 NDo=     1
 Linear equations converged to 5.187D-12 5.187D-11 after     8 iterations.
 LinEq1:  Iter=  0 NonCon=     1 RMS=3.03D-08 Max=1.54D-07 NDo=     1
 LinEq1:  Iter=  1 NonCon=     1 RMS=1.57D-08 Max=1.57D-07 NDo=     1
 LinEq1:  Iter=  2 NonCon=     1 RMS=7.58D-09 Max=6.90D-08 NDo=     1
 LinEq1:  Iter=  3 NonCon=     1 RMS=1.36D-09 Max=6.29D-09 NDo=     1
 LinEq1:  Iter=  4 NonCon=     1 RMS=6.40D-10 Max=3.67D-09 NDo=     1
 LinEq1:  Iter=  5 NonCon=     1 RMS=1.72D-10 Max=1.34D-09 NDo=     1
 LinEq1:  Iter=  6 NonCon=     1 RMS=5.93D-11 Max=5.08D-10 NDo=     1
 LinEq1:  Iter=  7 NonCon=     1 RMS=2.24D-11 Max=2.51D-10 NDo=     1
 LinEq1:  Iter=  8 NonCon=     0 RMS=8.27D-12 Max=5.77D-11 NDo=     1
 Linear equations converged to 1.210D-11 1.210D-10 after     8 iterations.
 LinEq1:  Iter=  0 NonCon=     1 RMS=1.43D-08 Max=1.01D-07 NDo=     1
 LinEq1:  Iter=  1 NonCon=     1 RMS=6.05D-09 Max=6.08D-08 NDo=     1
 LinEq1:  Iter=  2 NonCon=     1 RMS=2.73D-09 Max=2.61D-08 NDo=     1
 LinEq1:  Iter=  3 NonCon=     1 RMS=1.04D-09 Max=7.47D-09 NDo=     1
 LinEq1:  Iter=  4 NonCon=     1 RMS=5.09D-10 Max=2.76D-09 NDo=     1
 LinEq1:  Iter=  5 NonCon=     1 RMS=1.26D-10 Max=5.93D-10 NDo=     1
 LinEq1:  Iter=  6 NonCon=     1 RMS=3.21D-11 Max=3.14D-10 NDo=     1
 LinEq1:  Iter=  7 NonCon=     1 RMS=1.07D-11 Max=1.10D-10 NDo=     1
 LinEq1:  Iter=  8 NonCon=     0 RMS=3.82D-12 Max=1.95D-11 NDo=     1
 Linear equations converged to 5.078D-12 5.078D-11 after     8 iterations.
 LinEq1:  Iter=  0 NonCon=     1 RMS=3.07D-08 Max=1.62D-07 NDo=     1
 LinEq1:  Iter=  1 NonCon=     1 RMS=1.63D-08 Max=1.78D-07 NDo=     1
 LinEq1:  Iter=  2 NonCon=     1 RMS=8.22D-09 Max=7.26D-08 NDo=     1
 LinEq1:  Iter=  3 NonCon=     1 RMS=1.61D-09 Max=9.10D-09 NDo=     1
 LinEq1:  Iter=  4 NonCon=     1 RMS=8.13D-10 Max=4.61D-09 NDo=     1
 LinEq1:  Iter=  5 NonCon=     1 RMS=1.46D-10 Max=1.16D-09 NDo=     1
 LinEq1:  Iter=  6 NonCon=     1 RMS=5.50D-11 Max=4.90D-10 NDo=     1
 LinEq1:  Iter=  7 NonCon=     1 RMS=2.19D-11 Max=2.46D-10 NDo=     1
 LinEq1:  Iter=  8 NonCon=     0 RMS=7.69D-12 Max=5.22D-11 NDo=     1
 Linear equations converged to 1.274D-11 1.274D-10 after     8 iterations.
 LinEq1:  Iter=  0 NonCon=     1 RMS=1.43D-08 Max=9.73D-08 NDo=     1
 LinEq1:  Iter=  1 NonCon=     1 RMS=5.44D-09 Max=5.69D-08 NDo=     1
 LinEq1:  Iter=  2 NonCon=     1 RMS=2.43D-09 Max=2.22D-08 NDo=     1
 LinEq1:  Iter=  3 NonCon=     1 RMS=9.32D-10 Max=7.16D-09 NDo=     1
 LinEq1:  Iter=  4 NonCon=     1 RMS=3.65D-10 Max=2.24D-09 NDo=     1
 LinEq1:  Iter=  5 NonCon=     1 RMS=1.06D-10 Max=5.02D-10 NDo=     1
 LinEq1:  Iter=  6 NonCon=     1 RMS=2.42D-11 Max=2.30D-10 NDo=     1
 LinEq1:  Iter=  7 NonCon=     1 RMS=1.02D-11 Max=1.05D-10 NDo=     1
 LinEq1:  Iter=  8 NonCon=     0 RMS=3.18D-12 Max=1.50D-11 NDo=     1
 Linear equations converged to 3.543D-12 3.543D-11 after     8 iterations.
 LinEq1:  Iter=  0 NonCon=     1 RMS=3.48D-08 Max=1.73D-07 NDo=     1
 LinEq1:  Iter=  1 NonCon=     1 RMS=1.69D-08 Max=1.92D-07 NDo=     1
 LinEq1:  Iter=  2 NonCon=     1 RMS=8.76D-09 Max=7.33D-08 NDo=     1
 LinEq1:  Iter=  3 NonCon=     1 RMS=1.42D-09 Max=7.12D-09 NDo=     1
 LinEq1:  Iter=  4 NonCon=     1 RMS=4.57D-10 Max=2.99D-09 NDo=     1
 LinEq1:  Iter=  5 NonCon=     1 RMS=1.35D-10 Max=9.97D-10 NDo=     1
 LinEq1:  Iter=  6 NonCon=     1 RMS=5.22D-11 Max=4.86D-10 NDo=     1
 LinEq1:  Iter=  7 NonCon=     1 RMS=2.17D-11 Max=2.46D-10 NDo=     1
 LinEq1:  Iter=  8 NonCon=     0 RMS=8.26D-12 Max=5.77D-11 NDo=     1
 Linear equations converged to 1.404D-11 1.404D-10 after     8 iterations.
 LinEq1:  Iter=  0 NonCon=     1 RMS=1.28D-08 Max=8.98D-08 NDo=     1
 LinEq1:  Iter=  1 NonCon=     1 RMS=5.16D-09 Max=5.60D-08 NDo=     1
 LinEq1:  Iter=  2 NonCon=     1 RMS=2.23D-09 Max=1.89D-08 NDo=     1
 LinEq1:  Iter=  3 NonCon=     1 RMS=8.24D-10 Max=5.95D-09 NDo=     1
 LinEq1:  Iter=  4 NonCon=     1 RMS=3.11D-10 Max=1.95D-09 NDo=     1
 LinEq1:  Iter=  5 NonCon=     1 RMS=8.37D-11 Max=5.03D-10 NDo=     1
 LinEq1:  Iter=  6 NonCon=     1 RMS=1.84D-11 Max=1.75D-10 NDo=     1
 LinEq1:  Iter=  7 NonCon=     1 RMS=9.52D-12 Max=9.18D-11 NDo=     1
 LinEq1:  Iter=  8 NonCon=     1 RMS=2.82D-12 Max=1.48D-11 NDo=     1
 LinEq1:  Iter=  9 NonCon=     0 RMS=4.29D-13 Max=1.94D-12 NDo=     1
 Linear equations converged to 2.690D-12 2.690D-11 after     9 iterations.
 LinEq1:  Iter=  0 NonCon=     1 RMS=8.27D-09 Max=6.53D-08 NDo=     1
 LinEq1:  Iter=  1 NonCon=     1 RMS=4.35D-09 Max=5.18D-08 NDo=     1
 LinEq1:  Iter=  2 NonCon=     1 RMS=1.29D-09 Max=9.46D-09 NDo=     1
 LinEq1:  Iter=  3 NonCon=     1 RMS=3.46D-10 Max=2.04D-09 NDo=     1
 LinEq1:  Iter=  4 NonCon=     1 RMS=1.35D-10 Max=8.99D-10 NDo=     1
 LinEq1:  Iter=  5 NonCon=     1 RMS=4.38D-11 Max=3.03D-10 NDo=     1
 LinEq1:  Iter=  6 NonCon=     1 RMS=1.55D-11 Max=1.76D-10 NDo=     1
 LinEq1:  Iter=  7 NonCon=     1 RMS=4.77D-12 Max=3.55D-11 NDo=     1
 LinEq1:  Iter=  8 NonCon=     0 RMS=1.54D-12 Max=1.40D-11 NDo=     1
 Linear equations converged to 3.142D-12 3.142D-11 after     8 iterations.
 LinEq1:  Iter=  0 NonCon=     1 RMS=3.67D-08 Max=3.25D-07 NDo=     1
 LinEq1:  Iter=  1 NonCon=     1 RMS=1.37D-08 Max=9.54D-08 NDo=     1
 LinEq1:  Iter=  2 NonCon=     1 RMS=4.65D-09 Max=4.75D-08 NDo=     1
 LinEq1:  Iter=  3 NonCon=     1 RMS=1.61D-09 Max=9.91D-09 NDo=     1
 LinEq1:  Iter=  4 NonCon=     1 RMS=8.05D-10 Max=5.79D-09 NDo=     1
 LinEq1:  Iter=  5 NonCon=     1 RMS=2.81D-10 Max=2.02D-09 NDo=     1
 LinEq1:  Iter=  6 NonCon=     1 RMS=5.83D-11 Max=2.38D-10 NDo=     1
 LinEq1:  Iter=  7 NonCon=     1 RMS=1.94D-11 Max=2.03D-10 NDo=     1
 LinEq1:  Iter=  8 NonCon=     0 RMS=7.58D-12 Max=4.39D-11 NDo=     1
 Linear equations converged to 8.464D-12 8.464D-11 after     8 iterations.
 LinEq1:  Iter=  0 NonCon=     1 RMS=1.47D-08 Max=8.46D-08 NDo=     1
 LinEq1:  Iter=  1 NonCon=     1 RMS=6.46D-09 Max=6.17D-08 NDo=     1
 LinEq1:  Iter=  2 NonCon=     1 RMS=2.37D-09 Max=1.91D-08 NDo=     1
 LinEq1:  Iter=  3 NonCon=     1 RMS=5.11D-10 Max=3.63D-09 NDo=     1
 LinEq1:  Iter=  4 NonCon=     1 RMS=1.35D-10 Max=9.68D-10 NDo=     1
 LinEq1:  Iter=  5 NonCon=     1 RMS=6.93D-11 Max=4.88D-10 NDo=     1
 LinEq1:  Iter=  6 NonCon=     1 RMS=2.71D-11 Max=2.12D-10 NDo=     1
 LinEq1:  Iter=  7 NonCon=     1 RMS=1.23D-11 Max=9.37D-11 NDo=     1
 LinEq1:  Iter=  8 NonCon=     0 RMS=3.77D-12 Max=3.28D-11 NDo=     1
 Linear equations converged to 6.811D-12 6.811D-11 after     8 iterations.
 LinEq1:  Iter=  0 NonCon=     1 RMS=3.04D-08 Max=2.66D-07 NDo=     1
 LinEq1:  Iter=  1 NonCon=     1 RMS=1.12D-08 Max=6.96D-08 NDo=     1
 LinEq1:  Iter=  2 NonCon=     1 RMS=5.24D-09 Max=4.14D-08 NDo=     1
 LinEq1:  Iter=  3 NonCon=     1 RMS=3.32D-09 Max=2.18D-08 NDo=     1
 LinEq1:  Iter=  4 NonCon=     1 RMS=1.51D-09 Max=9.71D-09 NDo=     1
 LinEq1:  Iter=  5 NonCon=     1 RMS=2.85D-10 Max=1.94D-09 NDo=     1
 LinEq1:  Iter=  6 NonCon=     1 RMS=6.13D-11 Max=3.83D-10 NDo=     1
 LinEq1:  Iter=  7 NonCon=     1 RMS=2.01D-11 Max=1.88D-10 NDo=     1
 LinEq1:  Iter=  8 NonCon=     0 RMS=9.12D-12 Max=5.23D-11 NDo=     1
 Linear equations converged to 1.016D-11 1.016D-10 after     8 iterations.
 LinEq1:  Iter=  0 NonCon=     1 RMS=1.16D-08 Max=6.65D-08 NDo=     1
 LinEq1:  Iter=  1 NonCon=     1 RMS=5.50D-09 Max=4.83D-08 NDo=     1
 LinEq1:  Iter=  2 NonCon=     1 RMS=1.98D-09 Max=1.28D-08 NDo=     1
 LinEq1:  Iter=  3 NonCon=     1 RMS=6.27D-10 Max=4.61D-09 NDo=     1
 LinEq1:  Iter=  4 NonCon=     1 RMS=3.15D-10 Max=2.07D-09 NDo=     1
 LinEq1:  Iter=  5 NonCon=     1 RMS=1.01D-10 Max=7.04D-10 NDo=     1
 LinEq1:  Iter=  6 NonCon=     1 RMS=2.51D-11 Max=2.03D-10 NDo=     1
 LinEq1:  Iter=  7 NonCon=     1 RMS=1.28D-11 Max=1.02D-10 NDo=     1
 LinEq1:  Iter=  8 NonCon=     0 RMS=3.67D-12 Max=2.59D-11 NDo=     1
 Linear equations converged to 4.076D-12 4.076D-11 after     8 iterations.
 LinEq1:  Iter=  0 NonCon=     1 RMS=2.90D-08 Max=2.08D-07 NDo=     1
 LinEq1:  Iter=  1 NonCon=     1 RMS=9.86D-09 Max=7.34D-08 NDo=     1
 LinEq1:  Iter=  2 NonCon=     1 RMS=5.18D-09 Max=3.70D-08 NDo=     1
 LinEq1:  Iter=  3 NonCon=     1 RMS=2.45D-09 Max=1.57D-08 NDo=     1
 LinEq1:  Iter=  4 NonCon=     1 RMS=1.39D-09 Max=9.58D-09 NDo=     1
 LinEq1:  Iter=  5 NonCon=     1 RMS=3.10D-10 Max=2.12D-09 NDo=     1
 LinEq1:  Iter=  6 NonCon=     1 RMS=5.41D-11 Max=3.08D-10 NDo=     1
 LinEq1:  Iter=  7 NonCon=     1 RMS=1.94D-11 Max=1.86D-10 NDo=     1
 LinEq1:  Iter=  8 NonCon=     1 RMS=9.81D-12 Max=6.30D-11 NDo=     1
 LinEq1:  Iter=  9 NonCon=     0 RMS=1.29D-12 Max=7.90D-12 NDo=     1
 Linear equations converged to 9.633D-12 9.633D-11 after     9 iterations.
 QCLLim is confused:  Bigger=T Turned=T
 NLin=  3 IMin12=  1  2 I12=  0  2 IX=  1 XLMin= 0.000D+00 XLMax= 0.000D+00
 X = 0.000D+00 1.000D+00 2.000D+00
 DE= 0.000D+00 4.292D-12 2.377D-11
 LinEq1:  Iter=  0 NonCon=     1 RMS=3.65D-08 Max=2.07D-07 NDo=     1
 LinEq1:  Iter=  1 NonCon=     1 RMS=1.02D-08 Max=7.22D-08 NDo=     1
 LinEq1:  Iter=  2 NonCon=     1 RMS=4.34D-09 Max=4.28D-08 NDo=     1
 LinEq1:  Iter=  3 NonCon=     1 RMS=1.84D-09 Max=1.40D-08 NDo=     1
 LinEq1:  Iter=  4 NonCon=     1 RMS=7.12D-10 Max=4.42D-09 NDo=     1
 LinEq1:  Iter=  5 NonCon=     1 RMS=2.75D-10 Max=1.72D-09 NDo=     1
 LinEq1:  Iter=  6 NonCon=     1 RMS=4.98D-11 Max=2.33D-10 NDo=     1
 LinEq1:  Iter=  7 NonCon=     1 RMS=1.36D-11 Max=1.16D-10 NDo=     1
 LinEq1:  Iter=  8 NonCon=     0 RMS=6.41D-12 Max=4.78D-11 NDo=     1
 Linear equations converged to 1.263D-11 1.263D-10 after     8 iterations.
 LinEq1:  Iter=  0 NonCon=     1 RMS=1.64D-08 Max=1.22D-07 NDo=     1
 LinEq1:  Iter=  1 NonCon=     1 RMS=8.77D-09 Max=7.43D-08 NDo=     1
 LinEq1:  Iter=  2 NonCon=     1 RMS=3.39D-09 Max=2.12D-08 NDo=     1
 LinEq1:  Iter=  3 NonCon=     1 RMS=1.16D-09 Max=8.60D-09 NDo=     1
 LinEq1:  Iter=  4 NonCon=     1 RMS=4.01D-10 Max=2.92D-09 NDo=     1
 LinEq1:  Iter=  5 NonCon=     1 RMS=7.75D-11 Max=5.20D-10 NDo=     1
 LinEq1:  Iter=  6 NonCon=     1 RMS=2.69D-11 Max=2.91D-10 NDo=     1
 LinEq1:  Iter=  7 NonCon=     1 RMS=1.25D-11 Max=9.72D-11 NDo=     1
 LinEq1:  Iter=  8 NonCon=     1 RMS=3.26D-12 Max=2.60D-11 NDo=     1
 LinEq1:  Iter=  9 NonCon=     0 RMS=6.68D-13 Max=4.35D-12 NDo=     1
 Linear equations converged to 2.731D-12 2.731D-11 after     9 iterations.
 LinEq1:  Iter=  0 NonCon=     1 RMS=8.61D-09 Max=6.36D-08 NDo=     1
 LinEq1:  Iter=  1 NonCon=     1 RMS=4.81D-09 Max=4.51D-08 NDo=     1
 LinEq1:  Iter=  2 NonCon=     1 RMS=1.54D-09 Max=9.30D-09 NDo=     1
 LinEq1:  Iter=  3 NonCon=     1 RMS=5.74D-10 Max=4.36D-09 NDo=     1
 LinEq1:  Iter=  4 NonCon=     1 RMS=2.61D-10 Max=1.71D-09 NDo=     1
 LinEq1:  Iter=  5 NonCon=     1 RMS=8.24D-11 Max=5.23D-10 NDo=     1
 LinEq1:  Iter=  6 NonCon=     1 RMS=2.30D-11 Max=1.84D-10 NDo=     1
 LinEq1:  Iter=  7 NonCon=     1 RMS=1.00D-11 Max=8.71D-11 NDo=     1
 LinEq1:  Iter=  8 NonCon=     1 RMS=1.90D-12 Max=1.30D-11 NDo=     1
 LinEq1:  Iter=  9 NonCon=     0 RMS=3.65D-13 Max=2.26D-12 NDo=     1
 Linear equations converged to 1.859D-12 1.859D-11 after     9 iterations.
 LinEq1:  Iter=  0 NonCon=     1 RMS=1.41D-08 Max=1.12D-07 NDo=     1
 LinEq1:  Iter=  1 NonCon=     1 RMS=7.17D-09 Max=5.64D-08 NDo=     1
 LinEq1:  Iter=  2 NonCon=     1 RMS=2.98D-09 Max=2.47D-08 NDo=     1
 LinEq1:  Iter=  3 NonCon=     1 RMS=9.79D-10 Max=8.15D-09 NDo=     1
 LinEq1:  Iter=  4 NonCon=     1 RMS=3.34D-10 Max=1.72D-09 NDo=     1
 LinEq1:  Iter=  5 NonCon=     1 RMS=5.97D-11 Max=3.59D-10 NDo=     1
 LinEq1:  Iter=  6 NonCon=     1 RMS=2.69D-11 Max=2.53D-10 NDo=     1
 LinEq1:  Iter=  7 NonCon=     1 RMS=1.22D-11 Max=8.87D-11 NDo=     1
 LinEq1:  Iter=  8 NonCon=     1 RMS=3.19D-12 Max=2.19D-11 NDo=     1
 LinEq1:  Iter=  9 NonCon=     0 RMS=6.15D-13 Max=3.96D-12 NDo=     1
 Linear equations converged to 2.580D-12 2.580D-11 after     9 iterations.
 LinEq1:  Iter=  0 NonCon=     1 RMS=1.52D-08 Max=1.40D-07 NDo=     1
 LinEq1:  Iter=  1 NonCon=     1 RMS=6.41D-09 Max=5.11D-08 NDo=     1
 LinEq1:  Iter=  2 NonCon=     1 RMS=2.64D-09 Max=2.33D-08 NDo=     1
 LinEq1:  Iter=  3 NonCon=     1 RMS=7.44D-10 Max=5.33D-09 NDo=     1
 LinEq1:  Iter=  4 NonCon=     1 RMS=3.45D-10 Max=1.90D-09 NDo=     1
 LinEq1:  Iter=  5 NonCon=     1 RMS=1.06D-10 Max=8.05D-10 NDo=     1
 LinEq1:  Iter=  6 NonCon=     1 RMS=3.70D-11 Max=2.87D-10 NDo=     1
 LinEq1:  Iter=  7 NonCon=     1 RMS=1.51D-11 Max=1.50D-10 NDo=     1
 LinEq1:  Iter=  8 NonCon=     0 RMS=2.93D-12 Max=2.55D-11 NDo=     1
 Linear equations converged to 4.126D-12 4.126D-11 after     8 iterations.
 LinEq1:  Iter=  0 NonCon=     1 RMS=3.20D-08 Max=2.69D-07 NDo=     1
 LinEq1:  Iter=  1 NonCon=     1 RMS=9.83D-09 Max=8.23D-08 NDo=     1
 LinEq1:  Iter=  2 NonCon=     1 RMS=4.42D-09 Max=4.57D-08 NDo=     1
 LinEq1:  Iter=  3 NonCon=     1 RMS=1.09D-09 Max=6.05D-09 NDo=     1
 LinEq1:  Iter=  4 NonCon=     1 RMS=5.61D-10 Max=3.19D-09 NDo=     1
 LinEq1:  Iter=  5 NonCon=     1 RMS=1.93D-10 Max=1.14D-09 NDo=     1
 LinEq1:  Iter=  6 NonCon=     1 RMS=5.96D-11 Max=4.54D-10 NDo=     1
 LinEq1:  Iter=  7 NonCon=     1 RMS=1.67D-11 Max=1.54D-10 NDo=     1
 LinEq1:  Iter=  8 NonCon=     0 RMS=8.04D-12 Max=5.60D-11 NDo=     1
 Linear equations converged to 8.356D-12 8.356D-11 after     8 iterations.
 LinEq1:  Iter=  0 NonCon=     1 RMS=1.13D-08 Max=7.77D-08 NDo=     1
 LinEq1:  Iter=  1 NonCon=     1 RMS=5.57D-09 Max=4.92D-08 NDo=     1
 LinEq1:  Iter=  2 NonCon=     1 RMS=2.07D-09 Max=1.32D-08 NDo=     1
 LinEq1:  Iter=  3 NonCon=     1 RMS=5.44D-10 Max=3.95D-09 NDo=     1
 LinEq1:  Iter=  4 NonCon=     1 RMS=2.45D-10 Max=1.50D-09 NDo=     1
 LinEq1:  Iter=  5 NonCon=     1 RMS=8.07D-11 Max=4.61D-10 NDo=     1
 LinEq1:  Iter=  6 NonCon=     1 RMS=2.99D-11 Max=2.54D-10 NDo=     1
 LinEq1:  Iter=  7 NonCon=     1 RMS=1.16D-11 Max=9.18D-11 NDo=     1
 LinEq1:  Iter=  8 NonCon=     0 RMS=3.03D-12 Max=2.56D-11 NDo=     1
 Linear equations converged to 4.567D-12 4.567D-11 after     8 iterations.
 LinEq1:  Iter=  0 NonCon=     1 RMS=3.39D-08 Max=2.96D-07 NDo=     1
 LinEq1:  Iter=  1 NonCon=     1 RMS=1.05D-08 Max=1.02D-07 NDo=     1
 LinEq1:  Iter=  2 NonCon=     1 RMS=4.63D-09 Max=4.36D-08 NDo=     1
 LinEq1:  Iter=  3 NonCon=     1 RMS=1.82D-09 Max=1.10D-08 NDo=     1
 LinEq1:  Iter=  4 NonCon=     1 RMS=9.30D-10 Max=5.23D-09 NDo=     1
 LinEq1:  Iter=  5 NonCon=     1 RMS=2.68D-10 Max=1.41D-09 NDo=     1
 LinEq1:  Iter=  6 NonCon=     1 RMS=6.01D-11 Max=4.58D-10 NDo=     1
 LinEq1:  Iter=  7 NonCon=     1 RMS=1.97D-11 Max=1.63D-10 NDo=     1
 LinEq1:  Iter=  8 NonCon=     0 RMS=1.03D-11 Max=7.06D-11 NDo=     1
 Linear equations converged to 1.183D-11 1.183D-10 after     8 iterations.
 LinEq1:  Iter=  0 NonCon=     1 RMS=9.18D-09 Max=6.31D-08 NDo=     1
 LinEq1:  Iter=  1 NonCon=     1 RMS=4.88D-09 Max=4.00D-08 NDo=     1
 LinEq1:  Iter=  2 NonCon=     1 RMS=1.73D-09 Max=1.37D-08 NDo=     1
 LinEq1:  Iter=  3 NonCon=     1 RMS=2.90D-10 Max=1.97D-09 NDo=     1
 LinEq1:  Iter=  4 NonCon=     1 RMS=4.92D-11 Max=3.18D-10 NDo=     1
 LinEq1:  Iter=  5 NonCon=     1 RMS=1.83D-11 Max=1.53D-10 NDo=     1
 LinEq1:  Iter=  6 NonCon=     1 RMS=1.46D-11 Max=1.06D-10 NDo=     1
 LinEq1:  Iter=  7 NonCon=     1 RMS=6.28D-12 Max=3.49D-11 NDo=     1
 LinEq1:  Iter=  8 NonCon=     0 RMS=9.41D-13 Max=6.24D-12 NDo=     1
 Linear equations converged to 2.146D-12 2.146D-11 after     8 iterations.
 QCLLim is confused:  Bigger=T Turned=T
 NLin=  3 IMin12=  1  2 I12=  0  2 IX=  1 XLMin= 0.000D+00 XLMax= 0.000D+00
 X = 0.000D+00 1.000D+00 2.000D+00
 DE= 0.000D+00 3.737D-12 2.377D-11
 LinEq1:  Iter=  0 NonCon=     1 RMS=3.65D-08 Max=2.47D-07 NDo=     1
 LinEq1:  Iter=  1 NonCon=     1 RMS=1.35D-08 Max=1.44D-07 NDo=     1
 LinEq1:  Iter=  2 NonCon=     1 RMS=5.49D-09 Max=4.70D-08 NDo=     1
 LinEq1:  Iter=  3 NonCon=     1 RMS=4.18D-09 Max=4.60D-08 NDo=     1
 LinEq1:  Iter=  4 NonCon=     1 RMS=1.95D-09 Max=1.39D-08 NDo=     1
 LinEq1:  Iter=  5 NonCon=     1 RMS=2.94D-10 Max=2.62D-09 NDo=     1
 LinEq1:  Iter=  6 NonCon=     1 RMS=3.91D-11 Max=2.61D-10 NDo=     1
 LinEq1:  Iter=  7 NonCon=     1 RMS=7.74D-12 Max=8.70D-11 NDo=     1
 LinEq1:  Iter=  8 NonCon=     0 RMS=4.09D-12 Max=3.88D-11 NDo=     1
 Linear equations converged to 8.578D-12 8.578D-11 after     8 iterations.
 LinEq1:  Iter=  0 NonCon=     1 RMS=2.64D-08 Max=2.37D-07 NDo=     1
 LinEq1:  Iter=  1 NonCon=     1 RMS=1.63D-08 Max=1.49D-07 NDo=     1
 LinEq1:  Iter=  2 NonCon=     1 RMS=5.06D-09 Max=4.56D-08 NDo=     1
 LinEq1:  Iter=  3 NonCon=     1 RMS=8.71D-10 Max=6.13D-09 NDo=     1
 LinEq1:  Iter=  4 NonCon=     1 RMS=4.21D-10 Max=3.15D-09 NDo=     1
 LinEq1:  Iter=  5 NonCon=     1 RMS=1.02D-10 Max=5.59D-10 NDo=     1
 LinEq1:  Iter=  6 NonCon=     1 RMS=3.45D-11 Max=4.02D-10 NDo=     1
 LinEq1:  Iter=  7 NonCon=     1 RMS=1.59D-11 Max=1.43D-10 NDo=     1
 LinEq1:  Iter=  8 NonCon=     0 RMS=4.33D-12 Max=3.18D-11 NDo=     1
 Linear equations converged to 8.016D-12 8.016D-11 after     8 iterations.
 LinEq1:  Iter=  0 NonCon=     1 RMS=2.17D-08 Max=1.55D-07 NDo=     1
 LinEq1:  Iter=  1 NonCon=     1 RMS=7.19D-09 Max=7.35D-08 NDo=     1
 LinEq1:  Iter=  2 NonCon=     1 RMS=2.94D-09 Max=3.47D-08 NDo=     1
 LinEq1:  Iter=  3 NonCon=     1 RMS=1.22D-09 Max=7.82D-09 NDo=     1
 LinEq1:  Iter=  4 NonCon=     1 RMS=3.84D-10 Max=3.19D-09 NDo=     1
 LinEq1:  Iter=  5 NonCon=     1 RMS=1.66D-10 Max=1.07D-09 NDo=     1
 LinEq1:  Iter=  6 NonCon=     1 RMS=2.48D-11 Max=1.47D-10 NDo=     1
 LinEq1:  Iter=  7 NonCon=     1 RMS=5.07D-12 Max=5.02D-11 NDo=     1
 LinEq1:  Iter=  8 NonCon=     0 RMS=2.71D-12 Max=2.83D-11 NDo=     1
 Linear equations converged to 4.666D-12 4.666D-11 after     8 iterations.
 LinEq1:  Iter=  0 NonCon=     1 RMS=3.34D-08 Max=3.47D-07 NDo=     1
 LinEq1:  Iter=  1 NonCon=     1 RMS=1.81D-08 Max=1.88D-07 NDo=     1
 LinEq1:  Iter=  2 NonCon=     1 RMS=5.45D-09 Max=3.39D-08 NDo=     1
 LinEq1:  Iter=  3 NonCon=     1 RMS=1.30D-09 Max=1.01D-08 NDo=     1
 LinEq1:  Iter=  4 NonCon=     1 RMS=6.87D-10 Max=4.92D-09 NDo=     1
 LinEq1:  Iter=  5 NonCon=     1 RMS=1.86D-10 Max=1.22D-09 NDo=     1
 LinEq1:  Iter=  6 NonCon=     1 RMS=4.41D-11 Max=3.89D-10 NDo=     1
 LinEq1:  Iter=  7 NonCon=     1 RMS=1.85D-11 Max=2.29D-10 NDo=     1
 LinEq1:  Iter=  8 NonCon=     0 RMS=4.63D-12 Max=2.64D-11 NDo=     1
 Linear equations converged to 1.197D-11 1.197D-10 after     8 iterations.
 LinEq1:  Iter=  0 NonCon=     1 RMS=1.81D-08 Max=1.03D-07 NDo=     1
 LinEq1:  Iter=  1 NonCon=     1 RMS=5.38D-09 Max=5.51D-08 NDo=     1
 LinEq1:  Iter=  2 NonCon=     1 RMS=2.55D-09 Max=2.51D-08 NDo=     1
 LinEq1:  Iter=  3 NonCon=     1 RMS=1.15D-09 Max=8.52D-09 NDo=     1
 LinEq1:  Iter=  4 NonCon=     1 RMS=5.73D-10 Max=4.25D-09 NDo=     1
 LinEq1:  Iter=  5 NonCon=     1 RMS=1.89D-10 Max=1.76D-09 NDo=     1
 LinEq1:  Iter=  6 NonCon=     1 RMS=2.70D-11 Max=1.48D-10 NDo=     1
 LinEq1:  Iter=  7 NonCon=     1 RMS=7.34D-12 Max=6.57D-11 NDo=     1
 LinEq1:  Iter=  8 NonCon=     0 RMS=3.87D-12 Max=2.64D-11 NDo=     1
 Linear equations converged to 6.760D-12 6.760D-11 after     8 iterations.
 LinEq1:  Iter=  0 NonCon=     1 RMS=2.08D-08 Max=1.43D-07 NDo=     1
 LinEq1:  Iter=  1 NonCon=     1 RMS=1.09D-08 Max=1.02D-07 NDo=     1
 LinEq1:  Iter=  2 NonCon=     1 RMS=3.35D-09 Max=1.83D-08 NDo=     1
 LinEq1:  Iter=  3 NonCon=     1 RMS=1.36D-09 Max=1.01D-08 NDo=     1
 LinEq1:  Iter=  4 NonCon=     1 RMS=6.37D-10 Max=5.43D-09 NDo=     1
 LinEq1:  Iter=  5 NonCon=     1 RMS=2.09D-10 Max=1.72D-09 NDo=     1
 LinEq1:  Iter=  6 NonCon=     1 RMS=4.52D-11 Max=3.73D-10 NDo=     1
 LinEq1:  Iter=  7 NonCon=     1 RMS=1.91D-11 Max=2.38D-10 NDo=     1
 LinEq1:  Iter=  8 NonCon=     0 RMS=4.68D-12 Max=3.16D-11 NDo=     1
 Linear equations converged to 5.182D-12 5.182D-11 after     8 iterations.
 LinEq1:  Iter=  0 NonCon=     1 RMS=1.77D-08 Max=1.19D-07 NDo=     1
 LinEq1:  Iter=  1 NonCon=     1 RMS=5.06D-09 Max=5.03D-08 NDo=     1
 LinEq1:  Iter=  2 NonCon=     1 RMS=2.56D-09 Max=2.44D-08 NDo=     1
 LinEq1:  Iter=  3 NonCon=     1 RMS=1.01D-09 Max=8.72D-09 NDo=     1
 LinEq1:  Iter=  4 NonCon=     1 RMS=4.14D-10 Max=2.51D-09 NDo=     1
 LinEq1:  Iter=  5 NonCon=     1 RMS=1.78D-10 Max=1.00D-09 NDo=     1
 LinEq1:  Iter=  6 NonCon=     1 RMS=3.18D-11 Max=1.80D-10 NDo=     1
 LinEq1:  Iter=  7 NonCon=     1 RMS=9.85D-12 Max=8.29D-11 NDo=     1
 LinEq1:  Iter=  8 NonCon=     0 RMS=5.58D-12 Max=3.92D-11 NDo=     1
 Linear equations converged to 6.023D-12 6.023D-11 after     8 iterations.
 LinEq1:  Iter=  0 NonCon=     1 RMS=1.50D-08 Max=1.08D-07 NDo=     1
 LinEq1:  Iter=  1 NonCon=     1 RMS=8.56D-09 Max=7.31D-08 NDo=     1
 LinEq1:  Iter=  2 NonCon=     1 RMS=2.66D-09 Max=1.36D-08 NDo=     1
 LinEq1:  Iter=  3 NonCon=     1 RMS=6.41D-10 Max=3.96D-09 NDo=     1
 LinEq1:  Iter=  4 NonCon=     1 RMS=2.71D-10 Max=2.25D-09 NDo=     1
 LinEq1:  Iter=  5 NonCon=     1 RMS=1.14D-10 Max=5.65D-10 NDo=     1
 LinEq1:  Iter=  6 NonCon=     1 RMS=3.35D-11 Max=3.16D-10 NDo=     1
 LinEq1:  Iter=  7 NonCon=     1 RMS=1.72D-11 Max=1.87D-10 NDo=     1
 LinEq1:  Iter=  8 NonCon=     1 RMS=4.49D-12 Max=3.56D-11 NDo=     1
 LinEq1:  Iter=  9 NonCon=     0 RMS=7.65D-13 Max=4.20D-12 NDo=     1
 Linear equations converged to 3.397D-12 3.397D-11 after     9 iterations.
 LinEq1:  Iter=  0 NonCon=     1 RMS=3.75D-08 Max=1.87D-07 NDo=     1
 LinEq1:  Iter=  1 NonCon=     1 RMS=1.08D-08 Max=9.85D-08 NDo=     1
 LinEq1:  Iter=  2 NonCon=     1 RMS=5.40D-09 Max=3.76D-08 NDo=     1
 LinEq1:  Iter=  3 NonCon=     1 RMS=2.41D-09 Max=1.71D-08 NDo=     1
 LinEq1:  Iter=  4 NonCon=     1 RMS=1.21D-09 Max=9.73D-09 NDo=     1
 LinEq1:  Iter=  5 NonCon=     1 RMS=3.55D-10 Max=3.45D-09 NDo=     1
 LinEq1:  Iter=  6 NonCon=     1 RMS=7.23D-11 Max=3.27D-10 NDo=     1
 LinEq1:  Iter=  7 NonCon=     1 RMS=2.11D-11 Max=2.53D-10 NDo=     1
 LinEq1:  Iter=  8 NonCon=     0 RMS=8.83D-12 Max=6.26D-11 NDo=     1
 Linear equations converged to 1.443D-11 1.443D-10 after     8 iterations.
 LinEq1:  Iter=  0 NonCon=     1 RMS=1.02D-08 Max=7.13D-08 NDo=     1
 LinEq1:  Iter=  1 NonCon=     1 RMS=4.93D-09 Max=5.33D-08 NDo=     1
 LinEq1:  Iter=  2 NonCon=     1 RMS=2.18D-09 Max=1.46D-08 NDo=     1
 LinEq1:  Iter=  3 NonCon=     1 RMS=7.50D-10 Max=5.50D-09 NDo=     1
 LinEq1:  Iter=  4 NonCon=     1 RMS=3.87D-10 Max=2.22D-09 NDo=     1
 LinEq1:  Iter=  5 NonCon=     1 RMS=9.62D-11 Max=6.28D-10 NDo=     1
 LinEq1:  Iter=  6 NonCon=     1 RMS=2.25D-11 Max=1.57D-10 NDo=     1
 LinEq1:  Iter=  7 NonCon=     1 RMS=1.05D-11 Max=9.49D-11 NDo=     1
 LinEq1:  Iter=  8 NonCon=     1 RMS=3.46D-12 Max=2.39D-11 NDo=     1
[...]
      7 vectors produced by pass  4 Test12= 2.24D-15 8.33D-09 XBig12= 4.84D-09 3.19D-05.
      5 vectors produced by pass  5 Test12= 2.24D-15 8.33D-09 XBig12= 2.32D-11 1.67D-06.
      3 vectors produced by pass  6 Test12= 2.24D-15 8.33D-09 XBig12= 8.58D-14 1.25D-07.
 InvSVY:  IOpt=1 It=  1 EMax= 2.33D-15
 Solved reduced A of dimension    51 with     9 vectors.
 Isotropic polarizability for W=    0.000000        4.19 Bohr**3.
 End of Minotr F.D. properties file   721 does not exist.
 End of Minotr F.D. properties file   722 does not exist.
 End of Minotr F.D. properties file   788 does not exist.

 **********************************************************************

            Population analysis using the SCF Density.

 **********************************************************************

 Alpha  occ. eigenvalues --  -24.76846  -1.22623  -0.55802  -0.47321  -0.46949
 Alpha  occ. eigenvalues --   -0.43665
 Alpha virt. eigenvalues --    0.07679   0.20115   0.49673   0.85682   0.90547
 Alpha virt. eigenvalues --    0.93565   1.09225   1.09243   1.11213   1.57869
 Alpha virt. eigenvalues --    1.86127   1.86145   1.91222   2.39710   3.57148
 Alpha virt. eigenvalues --    3.64503   3.66595   3.66651   3.73638   3.73888
 Alpha virt. eigenvalues --    5.85117   5.93061   5.97515  66.47396
  Beta  occ. eigenvalues --  -24.73682  -1.13530  -0.44893  -0.43776  -0.42916
  Beta virt. eigenvalues --   -0.26413   0.07764   0.20172   0.49783   0.92043
  Beta virt. eigenvalues --    0.95124   0.95490   1.09234   1.09243   1.14752
  Beta virt. eigenvalues --    1.57872   1.86126   1.86144   1.91235   2.39720
  Beta virt. eigenvalues --    3.57175   3.75284   3.75524   3.76440   3.76477
  Beta virt. eigenvalues --    3.78591   5.95739   5.99306   6.00198  66.50547
          Condensed to atoms (all electrons):
               1          2          3
     1  H    0.581899   0.412275   0.014382
     2  H    0.412275   0.598615  -0.004930
     3  F    0.014382  -0.004930   8.976032
          Atomic-Atomic Spin Densities.
               1          2          3
     1  H   -0.001678   0.001942  -0.002244
     2  H    0.001942  -0.002759   0.000633
     3  F   -0.002244   0.000633   1.003772
 Mulliken charges and spin densities:
               1          2
     1  H   -0.008556  -0.001979
     2  H   -0.005960  -0.000183
     3  F    0.014516   1.002162
 Sum of Mulliken charges =   0.00000   1.00000
 Mulliken charges and spin densities with hydrogens summed into heavy atoms:
               1          2
     3  F    0.000000   1.000000
 APT charges:
               1
     1  H    0.010244
     2  H   -0.007367
     3  F   -0.002877
 Sum of APT charges =   0.00000
 APT charges with hydrogens summed into heavy atoms:
               1
     3  F    0.000000
 Electronic spatial extent (au):  <R**2>=            233.0946
 Charge=              0.0000 electrons
 Dipole moment (field-independent basis, Debye):
    X=              0.1395    Y=             -0.0000    Z=             -0.0000  Tot=              0.1395
 Quadrupole moment (field-independent basis, Debye-Ang):
   XX=             -6.0157   YY=             -6.0305   ZZ=             -6.8935
   XY=              0.0000   XZ=              0.0000   YZ=              0.0084
 Traceless Quadrupole moment (field-independent basis, Debye-Ang):
   XX=              0.2976   YY=              0.2827   ZZ=             -0.5803
   XY=              0.0000   XZ=              0.0000   YZ=              0.0084
 Octapole moment (field-independent basis, Debye-Ang**2):
  XXX=            -34.7401  YYY=             -0.0000  ZZZ=             -0.0000  XYY=             -9.5877
  XXY=              0.0001  XXZ=              0.0000  XZZ=            -11.8313  YZZ=             -0.0000
  YYZ=             -0.0000  XYZ=              0.0218
 Hexadecapole moment (field-independent basis, Debye-Ang**3):
 XXXX=           -198.6115 YYYY=             -4.0657 ZZZZ=             -4.8362 XXXY=              0.0002
 XXXZ=              0.0000 YYYX=              0.0000 YYYZ=              0.0037 ZZZX=              0.0000
 ZZZY=              0.0037 XXYY=            -28.6490 XXZZ=            -34.6107 YYZZ=             -1.4836
 XXYZ=              0.0580 YYXZ=              0.0000 ZZXY=              0.0000
 N-N= 4.030945287977D+00 E-N=-2.491591707888D+02  KE= 1.007944326700D+02
  Exact polarizability:       8.215       0.000       2.401       0.000       0.004       1.954
 Approx polarizability:       9.107       0.000       2.601       0.000       0.006       2.035
                          Isotropic Fermi Contact Couplings
        Atom                 a.u.       MegaHertz       Gauss      10(-4) cm-1
     1  H(1)               0.00004       0.16371       0.05842       0.05461
     2  H(1)              -0.00017      -0.75503      -0.26941      -0.25185
     3  F(19)              0.03109     130.79065      46.66935      43.62706
 --------------------------------------------------------
       Center         ----  Spin Dipole Couplings  ----
                      3XX-RR        3YY-RR        3ZZ-RR
 --------------------------------------------------------
     1   Atom        0.015365     -0.007364     -0.008001
     2   Atom        0.007848     -0.003827     -0.004020
     3   Atom       -3.141771      6.298757     -3.156986
 --------------------------------------------------------
                        XY            XZ            YZ
 --------------------------------------------------------
     1   Atom       -0.000000     -0.000000      0.000006
     2   Atom       -0.000000      0.000000      0.000002
     3   Atom        0.000118      0.000001      0.092036
 --------------------------------------------------------


 ---------------------------------------------------------------------------------
              Anisotropic Spin Dipole Couplings in Principal Axis System
 ---------------------------------------------------------------------------------

       Atom             a.u.   MegaHertz   Gauss  10(-4) cm-1        Axes

              Baa    -0.0080    -4.269    -1.523    -1.424  0.0000 -0.0097  1.0000
     1 H(1)   Bbb    -0.0074    -3.929    -1.402    -1.311  0.0000  1.0000  0.0097
              Bcc     0.0154     8.198     2.925     2.735  1.0000 -0.0000 -0.0000
 
              Baa    -0.0040    -2.145    -0.765    -0.716 -0.0000 -0.0097  1.0000
     2 H(1)   Bbb    -0.0038    -2.042    -0.729    -0.681  0.0000  1.0000  0.0097
              Bcc     0.0078     4.187     1.494     1.397  1.0000 -0.0000  0.0000
 
              Baa    -3.1579 -1585.969  -565.913  -529.022  0.0000 -0.0097  1.0000
     3 F(19)  Bbb    -3.1418 -1577.878  -563.026  -526.323  1.0000 -0.0000 -0.0000
              Bcc     6.2997  3163.847  1128.939  1055.346  0.0000  1.0000  0.0097
 

 ---------------------------------------------------------------------------------

 Calling FoFJK, ICntrl=    100127 FMM=F ISym2X=0 I1Cent= 0 IOpClX= 1 NMat=1 NMatS=1 NMatT=0.
 Full mass-weighted force constant matrix:
 Low frequencies ----1175.6651-1167.0893  -25.3123   -0.0029   -0.0012   -0.0007
 Low frequencies ---   13.5148  164.5256 5088.6740
 ******    2 imaginary frequencies (negative Signs) ****** 
 Diagonal vibrational polarizability:
        0.4792235       0.0005686       0.0006373
 Harmonic frequencies (cm**-1), IR intensities (KM/Mole), Raman scattering
 activities (A**4/AMU), depolarization ratios for plane and unpolarized
 incident light, reduced masses (AMU), force constants (mDyne/A),
 and normal coordinates:
                      1                      2                      3
                      A                      A                      A
 Frequencies --  -1166.2788             -1157.3268               164.5256
 Red. masses --      1.0092                 1.0092                 1.1085
 Frc consts  --      0.8088                 0.7964                 0.0177
 IR Inten    --      0.0287                 0.0317                 0.4798
  Atom  AN      X      Y      Z        X      Y      Z        X      Y      Z
     1   1     0.00   0.79   0.01     0.00  -0.01   0.79     0.70  -0.00  -0.00
     2   1     0.00  -0.62  -0.01     0.00   0.01  -0.62     0.71   0.00   0.00
     3   9    -0.00  -0.01  -0.00    -0.00   0.00  -0.01    -0.07   0.00   0.00
                      4
                      A
 Frequencies --   5088.6740
 Red. masses --      1.0078
 Frc consts  --     15.3760
 IR Inten    --      2.1053
  Atom  AN      X      Y      Z
     1   1     0.71  -0.00  -0.00
     2   1    -0.71   0.00   0.00
     3   9    -0.00   0.00   0.00

 -------------------
 - Thermochemistry -
 -------------------
 Temperature   298.150 Kelvin.  Pressure   1.00000 Atm.
 Atom     1 has atomic number  1 and mass   1.00783
 Atom     2 has atomic number  1 and mass   1.00783
 Atom     3 has atomic number  9 and mass  18.99840
 Molecular mass:    21.01405 amu.
 Principal axes and moments of inertia in atomic units:
                           1         2         3
     Eigenvalues --     0.00000  57.51405  57.51405
           X            1.00000  -0.00000   0.00000
           Y            0.00000   1.00000   0.00000
           Z            0.00000   0.00000   1.00000
 This molecule is a prolate symmetric top.
 Rotational symmetry number  1.
 Rotational temperature (Kelvin)      1.50596
 Rotational constant (GHZ):          31.379134
    2 imaginary frequencies ignored.
 Zero-point vibrational energy      31421.1 (Joules/Mol)
                                    7.50983 (Kcal/Mol)
 Warning -- explicit consideration of   1 degrees of freedom as
           vibrations may cause significant error
 Vibrational temperatures:    236.72  7321.47
          (Kelvin)
 
 Zero-point correction=                           0.011968 (Hartree/Particle)
 Thermal correction to Energy=                    0.014947
 Thermal correction to Enthalpy=                  0.015891
 Thermal correction to Gibbs Free Energy=        -0.008549
 Sum of electronic and zero-point Energies=           -100.921152
 Sum of electronic and thermal Energies=              -100.918173
 Sum of electronic and thermal Enthalpies=            -100.917228
 Sum of electronic and thermal Free Energies=         -100.941668
 
                     E (Thermal)             CV                S
                      KCal/Mol        Cal/Mol-Kelvin    Cal/Mol-Kelvin
 Total                    9.379              6.854             51.438
 Electronic               0.000              0.000              1.377
 Translational            0.889              2.981             35.068
 Rotational               0.592              1.987             12.496
 Vibrational              7.898              1.886              2.497
 Vibration     1          0.623              1.886              2.497
                       Q            Log10(Q)             Ln(Q)
 Total Bot       0.855841D+04          3.932393          9.054669
 Total V=0       0.273611D+10          9.437134         21.729804
 Vib (Bot)       0.570852D-05         -5.243477        -12.073551
 Vib (Bot)    1  0.122704D+01          0.088860          0.204609
 Vib (V=0)       0.182501D+01          0.261264          0.601583
 Vib (V=0)    1  0.182501D+01          0.261264          0.601583
 Electronic      0.200000D+01          0.301030          0.693147
 Translational   0.378633D+07          6.578219         15.146908
 Rotational      0.197980D+03          2.296621          5.288165
 -------------------------------------------------------------------
 Center     Atomic                   Forces (Hartrees/Bohr)
 Number     Number              X              Y              Z
 -------------------------------------------------------------------
      1        1           0.035711358    0.000000015    0.000000000
      2        1          -0.035960573   -0.000000008   -0.000000000
      3        9           0.000249215   -0.000000006   -0.000000000
 -------------------------------------------------------------------
 Cartesian Forces:  Max     0.035960573 RMS     0.016893543

 GradGradGradGradGradGradGradGradGradGradGradGradGradGradGradGradGradGrad
 Berny optimization.
 Search for a local minimum.
 Step number   1 out of a maximum of    2
 All quantities printed in internal units (Hartrees-Bohrs-Radians)
 Second derivative matrix not updated -- analytic derivatives used.
 The second derivative matrix:
                          X1        Y1        Z1        X2        Y2
           X1           0.49473
           Y1          -0.00000  -0.02625
           Z1          -0.00000  -0.00001  -0.02571
           X2          -0.49334   0.00000   0.00000   0.49382
           Y2           0.00000   0.02635   0.00000   0.00000  -0.02649
           Z2           0.00000   0.00000   0.02598  -0.00000  -0.00000
           X3          -0.00139   0.00000   0.00000  -0.00048  -0.00000
           Y3           0.00000  -0.00009   0.00000  -0.00000   0.00014
           Z3           0.00000   0.00000  -0.00027  -0.00000  -0.00000
                          Z2        X3        Y3        Z3
           Z2          -0.02623
           X3          -0.00000   0.00187
           Y3          -0.00000  -0.00000  -0.00004
           Z3           0.00026  -0.00000  -0.00000   0.00001
 ITU=  0
     Eigenvalues ---   -0.05178  -0.05097   0.00212   0.98761
 Eigenvalue     1 is  -5.18D-02 should be greater than     0.000000 Eigenvector:
                          Y1        Y2        Y3        Z1        Z2
   1                    0.78424  -0.61789  -0.05545   0.00773  -0.00609
                          Z3        X1        X2        X3
   1                   -0.00055   0.00000   0.00000  -0.00000
 Eigenvalue     2 is  -5.10D-02 should be greater than     0.000000 Eigenvector:
                          Z1        Z2        Z3        Y1        Y2
   1                    0.78424  -0.61789  -0.05545  -0.00773   0.00609
                          Y3        X1        X2        X3
   1                    0.00055   0.00000   0.00000  -0.00000
 Angle between quadratic step and forces=  69.78 degrees.
 Linear search not attempted -- first point.
 B after Tr=     0.040336   -0.000000    0.000000
         Rot=    0.988834    0.149022    0.000000    0.000000 Ang=  17.14 deg.
 Variable       Old X    -DE/DX   Delta X   Delta X   Delta X     New X
                                 (Linear)    (Quad)   (Total)
    X1        0.00000   0.03571   0.00000  -0.05440  -0.01406  -0.01406
    Y1        0.00000   0.00000   0.00000   0.00000   0.00000   0.00000
    Z1        0.00000   0.00000   0.00000   0.00000  -0.00000  -0.00000
    X2       -1.32281  -0.03596   0.00000  -0.12711  -0.08678  -1.40958
    Y2        0.00000  -0.00000   0.00000  -0.00000  -0.00000  -0.00000
    Z2        0.00000  -0.00000   0.00000  -0.00000   0.00000   0.00000
    X3        4.91329   0.00025   0.00000   0.06050   0.10084   5.01413
    Y3        0.00000  -0.00000   0.00000  -0.00000  -0.00000  -0.00000
    Z3        0.00000  -0.00000   0.00000  -0.00000   0.00000   0.00000
         Item               Value     Threshold  Converged?
 Maximum Force            0.035961     0.000450     NO 
 RMS     Force            0.016894     0.000300     NO 
 Maximum Displacement     0.100840     0.001800     NO 
 RMS     Displacement     0.044593     0.001200     NO 
 Predicted change in Energy=-1.321682D-03
 GradGradGradGradGradGradGradGradGradGradGradGradGradGradGradGradGradGrad


 ----------------------------------------------------------------------

 Electric dipole moment (input orientation):
 (Debye = 10**-18 statcoulomb cm , SI units = C m)
                  (au)            (Debye)         (10**-30 SI)
   Tot        0.548896D-01      0.139515D+00      0.465373D+00
   x          0.548896D-01      0.139515D+00      0.465373D+00
   y          0.000000D+00      0.000000D+00      0.000000D+00
   z          0.000000D+00      0.000000D+00      0.000000D+00

 Dipole polarizability, Alpha (input orientation).
 (esu units = cm**3 , SI units = C**2 m**2 J**-1)
 Alpha(0;0):
               (au)            (10**-24 esu)      (10**-40 SI)
   iso        0.418998D+01      0.620892D+00      0.690835D+00
   aniso      0.604952D+01      0.896446D+00      0.997431D+00
   xx         0.821474D+01      0.121730D+01      0.135443D+01
   yx         0.000000D+00      0.000000D+00      0.000000D+00
   yy         0.240088D+01      0.355774D+00      0.395852D+00
   zx         0.126114D-04      0.186882D-05      0.207935D-05
   zy         0.434104D-02      0.643276D-03      0.715741D-03
   zz         0.195432D+01      0.289601D+00      0.322224D+00

 ----------------------------------------------------------------------

 Dipole orientation:
     1          0.00000000          0.00000000          0.00000000
     1          0.00000050         -0.00000183         -1.32280829
     9         -0.00000187          0.00000681          4.91328792

 Electric dipole moment (dipole orientation):
 (Debye = 10**-18 statcoulomb cm , SI units = C m)
                  (au)            (Debye)         (10**-30 SI)
   Tot        0.548896D-01      0.139515D+00      0.465373D+00
   x          0.000000D+00      0.000000D+00      0.000000D+00
   y          0.000000D+00      0.000000D+00      0.000000D+00
   z          0.548896D-01      0.139515D+00      0.465373D+00

 Dipole polarizability, Alpha (dipole orientation).
 (esu units = cm**3 , SI units = C**2 m**2 J**-1)
 Alpha(0;0):
               (au)            (10**-24 esu)      (10**-40 SI)
   iso        0.418998D+01      0.620892D+00      0.690835D+00
   aniso      0.604952D+01      0.896446D+00      0.997431D+00
   xx         0.195432D+01      0.289601D+00      0.322224D+00
   yx        -0.434042D-02     -0.643184D-03     -0.715639D-03
   yy         0.240088D+01      0.355774D+00      0.395852D+00
   zx        -0.149830D-04     -0.222025D-05     -0.247036D-05
   zy         0.146217D-04      0.216671D-05      0.241079D-05
   zz         0.821474D+01      0.121730D+01      0.135443D+01

 ----------------------------------------------------------------------
 Unable to Open any file for archive entry.
 1\1\GINC-DESKTOP-B3RIHJD\Freq\UB3LYP\6-311G(d,p)\F1H2(2)\GARYX\22-Aug-
 2025\0\\# sp b3lyp/6-311g** Force nosymm scf=(qc)\\Title Card Required
 \\0,2\H,0.,0.,0.\H,-0.7,0.,0.\F,2.6,0.,0.\\Version=ES64L-G16RevC.01\HF
 =-100.9331192\S2=0.751025\S2-1=0.\S2A=0.750001\RMSD=7.777e-09\RMSF=1.6
 89e-02\ZeroPoint=0.0119677\Thermal=0.0149466\ETot=-100.9181726\HTot=-1
 00.9172284\GTot=-100.9416685\Dipole=0.0548896,0.,0.\DipoleDeriv=0.0479
 702,0.,0.0000002,-0.0000015,-0.0085309,0.0000016,0.0000009,0.0000017,-
 0.0087069,-0.017991,0.,0.,0.000001,-0.0021666,-0.0000021,-0.0000008,-0
 .0000022,-0.0019437,-0.0299792,0.,-0.0000001,0.0000004,0.0106974,0.000
 0005,-0.0000002,0.0000005,0.0106505\Polar=8.2147449,0.0000066,2.400884
 6,0.0000126,0.004341,1.954322\Quadrupole=0.2212292,0.2101732,-0.431402
 4,0.0000078,0.,0.0062446\PG=C*V [C*(H1H1F1)]\NImag=2\\0.49472883,-0.00
 000003,-0.02625184,-0.00000002,-0.00000542,-0.02571060,-0.49333851,0.,
 0.00000001,0.49381534,0.00000002,0.02634673,0.00000360,0.,-0.02648632,
 0.00000002,0.00000360,0.02597676,0.,-0.00000246,-0.02623295,-0.0013903
 2,0.00000002,0.00000001,-0.00047683,-0.00000002,0.,0.00186715,0.,-0.00
 009489,0.00000182,0.,0.00013959,-0.00000113,0.,-0.00004470,0.,0.000001
 82,-0.00026616,0.,-0.00000113,0.00025620,0.,-0.00000069,0.00000996\\-0
 .03571136,-0.00000001,0.,0.03596057,0.,0.,-0.00024921,0.,0.\\\@
 The archive entry for this job was punched.


 IF YOU WANT TO LEARN FROM THE THEORETICAL PHYSICISTS ABOUT THE
 METHODS WHICH THEY USE, I ADVISE YOU TO FOLLOW THIS PRINCIPLE VERY STRICTLY:
 DON'T LISTEN TO THEIR WORDS; PAY ATTENTION, INSTEAD, TO THEIR ACTIONS.
 -- A.EINSTEIN, 1934
 Job cpu time:       0 days  0 hours  3 minutes 30.2 seconds.
 Elapsed time:       0 days  0 hours  0 minutes 28.0 seconds.
 File lengths (MBytes):  RWF=      6 Int=      0 D2E=      0 Chk=      1 Scr=      1
 Normal termination of Gaussian 16 at Fri Aug 22 17:59:24 2025.
