 Entering Gaussian System, Link 0=g16
 Initial command:
 /home/garyx/gaussian/g16/l1.exe "/tmp/gaussian_scratch/Gau-355962.inp" -scrdir="/tmp/gaussian_scratch/"
 Entering Link 1 = /home/garyx/gaussian/g16/l1.exe PID=    355964.
  
 Copyright (c) 1988-2019, Gaussian, Inc.  All Rights Reserved.
  
 This is part of the Gaussian(R) 16 program.  It is based on
 the Gaussian(R) 09 system (copyright 2009, Gaussian, Inc.),
 the Gaussian(R) 03 system (copyright 2003, Gaussian, Inc.),
 the Gaussian(R) 98 system (copyright 1998, Gaussian, Inc.),
 the Gaussian(R) 94 system (copyright 1995, Gaussian, Inc.),
 the Gaussian 92(TM) system (copyright 1992, Gaussian, Inc.),
 the Gaussian 90(TM) system (copyright 1990, Gaussian, Inc.),
 the Gaussian 88(TM) system (copyright 1988, Gaussian, Inc.),
 the Gaussian 86(TM) system (copyright 1986, Carnegie Mellon
 University), and the Gaussian 82(TM) system (copyright 1983,
 Carnegie Mellon University). Gaussian is a federally registered
 trademark of Gaussian, Inc.
  
 This software contains proprietary and confidential information,
 including trade secrets, belonging to Gaussian, Inc.
  
 This software is provided under written license and may be
 used, copied, transmitted, or stored only in accord with that
 written license.
  
 The following legend is applicable only to US Government
 contracts under FAR:
  
                    RESTRICTED RIGHTS LEGEND
  
 Use, reproduction and disclosure by the US Government is
 subject to restrictions as set forth in subparagraphs (a)
 and (c) of the Commercial Computer Software - Restricted
 Rights clause in FAR 52.227-19.
  
 Gaussian, Inc.
 340 Quinnipiac St., Bldg. 40, Wallingford CT 06492
  
  
 ---------------------------------------------------------------
 Warning -- This program may not be used in any manner that
 competes with the business of Gaussian, Inc. or will provide
 assistance to any competitor of Gaussian, Inc.  The licensee
 of this program is prohibited from giving any competitor of
 Gaussian, Inc. access to this program.  By using this program,
 the user acknowledges that Gaussian, Inc. is engaged in the
 business of creating and licensing software in the field of
 computational chemistry and represents and warrants to the
 licensee that it is not a competitor of Gaussian, Inc. and that
 it will not use this program in any manner prohibited above.
 ---------------------------------------------------------------
  

 Cite this work as:
 Gaussian 16, Revision C.01,
 M. J. Frisch, G. W. Trucks, H. B. Schlegel, G. E. Scuseria, 
 M. A. Robb, J. R. Cheeseman, G. Scalmani, V. Barone, 
 G. A. Petersson, H. Nakatsuji, X. Li, M. Caricato, A. V. Marenich, 
 J. Bloino, B. G. Janesko, R. Gomperts, B. Mennucci, H. P. Hratchian, 
 J. V. Ortiz, A. F. Izmaylov, J. L. Sonnenberg, D. Williams-Young, 
 F. Ding, F. Lipparini, F. Egidi, J. Goings, B. Peng, A. Petrone, 
 T. Henderson, D. Ranasinghe, V. G. Zakrzewski, J. Gao, N. Rega, 
 G. Zheng, W. Liang, M. Hada, M. Ehara, K. Toyota, R. Fukuda, 
 J. Hasegawa, M. Ishida, T. Nakajima, Y. Honda, O. Kitao, H. Nakai, 
 T. Vreven, K. Throssell, J. A. Montgomery, Jr., J. E. Peralta, 
 F. Ogliaro, M. J. Bearpark, J. J. Heyd, E. N. Brothers, K. N. Kudin, 
 V. N. Staroverov, T. A. Keith, R. Kobayashi, J. Normand, 
 K. Raghavachari, A. P. Rendell, J. C. Burant, S. S. Iyengar, 
 J. Tomasi, M. Cossi, J. M. Millam, M. Klene, C. Adamo, R. Cammi, 
 J. W. Ochterski, R. L. Martin, K. Morokuma, O. Farkas, 
 J. B. Foresman, and D. J. Fox, Gaussian, Inc., Wallingford CT, 2019.
 
 ******************************************
 Gaussian 16:  ES64L-G16RevC.01  3-Jul-2019
                22-Aug-2025 
 ******************************************
 %mem=10GB
 %nprocs=8
 Will use up to    8 processors via shared memory.
 -----------------------------------------
 # sp b3lyp/6-311g** Force nosymm scf=(qc)
 -----------------------------------------
 1/10=4,30=1,38=1/1,3;
 2/12=2,15=1,17=6,18=5,40=1/2;
 3/5=4,6=6,7=101,11=2,25=1,30=1,71=2,74=-5,140=1/1,2,3;
 4//1;
 5/5=2,8=3,38=5,98=1/8;
 8/6=4,10=90,11=11/1;
 11/6=1,8=1,9=11,15=111,16=1,31=1/1,2,10;
 10/6=1,31=1/2;
 6/7=2,8=2,9=2,10=2,28=1/1;
 7/8=1,10=1,25=1,30=1/1,2,3,16;
 1/10=4,30=1/3;
 99//99;
 -------------------
 Title Card Required
 -------------------
 Symbolic Z-matrix:
 Charge =  0 Multiplicity = 2
 H                     0.        0.        0. 
 H                    -3.6       0.        0. 
 F                     1.6       0.        0. 
 

 GradGradGradGradGradGradGradGradGradGradGradGradGradGradGradGradGradGrad
 Berny optimization.
 Initialization pass.
 Trust Radius=3.00D-01 FncErr=1.00D-07 GrdErr=1.00D-07 EigMax=2.50D+02 EigMin=1.00D-04
 Number of steps in this run=      2 maximum allowed number of steps=      2.
 GradGradGradGradGradGradGradGradGradGradGradGradGradGradGradGradGradGrad

                          Input orientation:                          
 ---------------------------------------------------------------------
 Center     Atomic      Atomic             Coordinates (Angstroms)
 Number     Number       Type             X           Y           Z
 ---------------------------------------------------------------------
      1          1           0        0.000000    0.000000    0.000000
      2          1           0       -3.600000    0.000000    0.000000
      3          9           0        1.600000    0.000000    0.000000
 ---------------------------------------------------------------------
                    Distance matrix (angstroms):
                    1          2          3
     1  H    0.000000
     2  H    3.600000   0.000000
     3  F    1.600000   5.200000   0.000000
 Symmetry turned off by external request.
 Stoichiometry    FH2(2)
 Framework group  C*V[C*(HHF)]
 Deg. of freedom     2
 Full point group                 C*V     NOp   4
 Rotational constants (GHZ):           0.0000000          18.3130782          18.3130782
 Standard basis: 6-311G(d,p) (5D, 7F)
    30 basis functions,    48 primitive gaussians,    31 cartesian basis functions
     6 alpha electrons        5 beta electrons
       nuclear repulsion energy         4.0394991154 Hartrees.
 NAtoms=    3 NActive=    3 NUniq=    3 SFac= 1.00D+00 NAtFMM=   60 NAOKFM=F Big=F
 Integral buffers will be    131072 words long.
 Raffenetti 2 integral format.
 Two-electron integral symmetry is turned off.
 One-electron integrals computed using PRISM.
 NBasis=    30 RedAO= T EigKep=  8.83D-02  NBF=    30
 NBsUse=    30 1.00D-06 EigRej= -1.00D+00 NBFU=    30
 ExpMin= 1.03D-01 ExpMax= 1.14D+04 ExpMxC= 1.72D+03 IAcc=3 IRadAn=         5 AccDes= 0.00D+00
 Harris functional with IExCor=  402 and IRadAn=       5 diagonalized for initial guess.
 HarFok:  IExCor=  402 AccDes= 0.00D+00 IRadAn=         5 IDoV= 1 UseB2=F ITyADJ=14
 ICtDFT=  3500011 ScaDFX=  1.000000  1.000000  1.000000  1.000000
 FoFCou: FMM=F IPFlag=           0 FMFlag=      100000 FMFlg1=           0
         NFxFlg=           0 DoJE=T BraDBF=F KetDBF=T FulRan=T
         wScrn=  0.000000 ICntrl=       500 IOpCl=  0 I1Cent=   200000004 NGrid=           0
         NMat0=    1 NMatS0=      1 NMatT0=    0 NMatD0=    1 NMtDS0=    0 NMtDT0=    0
 Symmetry not used in FoFCou.
 Initial guess <Sx>= 0.0000 <Sy>= 0.0000 <Sz>= 0.5000 <S**2>= 0.7500 S= 0.5000
 Keep R1 and R2 ints in memory in canonical form, NReq=7127049.
 Gradient too large for Newton-Raphson -- use scaled steepest descent instead.
     Accept linear search using points  1 and  2.
 Gradient too large for Newton-Raphson -- use scaled steepest descent instead.
     Accept linear search using points  3 and  4.
 Gradient too large for Newton-Raphson -- use scaled steepest descent instead.
     Minimum is close to point  2 DX=  3.31D-02 DF= -2.86D-06 DXR=  9.92D-02 DFR=  9.95D-03 which will be used.
 Gradient too large for Newton-Raphson -- use scaled steepest descent instead.
     Accept linear search using points  2 and  3.
 LinEq1:  Iter=  0 NonCon=     1 RMS=8.20D-04 Max=8.72D-03 NDo=     1
 AX will form     1 AO Fock derivatives at one time.
 LinEq1:  Iter=  1 NonCon=     1 RMS=9.50D-04 Max=1.23D-02 NDo=     1
 LinEq1:  Iter=  2 NonCon=     1 RMS=1.31D-04 Max=1.38D-03 NDo=     1
 LinEq1:  Iter=  3 NonCon=     1 RMS=4.97D-05 Max=4.34D-04 NDo=     1
 LinEq1:  Iter=  4 NonCon=     1 RMS=6.99D-06 Max=4.53D-05 NDo=     1
 LinEq1:  Iter=  5 NonCon=     1 RMS=6.65D-07 Max=5.16D-06 NDo=     1
 LinEq1:  Iter=  6 NonCon=     1 RMS=9.51D-08 Max=8.08D-07 NDo=     1
 LinEq1:  Iter=  7 NonCon=     1 RMS=2.27D-08 Max=1.85D-07 NDo=     1
 LinEq1:  Iter=  8 NonCon=     0 RMS=1.34D-09 Max=8.99D-09 NDo=     1
 Linear equations converged to 1.640D-09 1.640D-08 after     8 iterations.
     Minimum is close to point  2 DX=  1.15D-02 DF= -2.96D-09 DXR=  1.14D-02 DFR=  1.29D-04 which will be used.
 LinEq1:  Iter=  0 NonCon=     1 RMS=4.45D-06 Max=6.50D-05 NDo=     1
 LinEq1:  Iter=  1 NonCon=     1 RMS=7.05D-06 Max=1.03D-04 NDo=     1
 LinEq1:  Iter=  2 NonCon=     1 RMS=3.87D-06 Max=4.09D-05 NDo=     1
 LinEq1:  Iter=  3 NonCon=     1 RMS=6.70D-07 Max=3.98D-06 NDo=     1
 LinEq1:  Iter=  4 NonCon=     1 RMS=1.25D-07 Max=1.12D-06 NDo=     1
 LinEq1:  Iter=  5 NonCon=     1 RMS=1.47D-08 Max=1.14D-07 NDo=     1
 LinEq1:  Iter=  6 NonCon=     1 RMS=3.62D-09 Max=2.95D-08 NDo=     1
 LinEq1:  Iter=  7 NonCon=     0 RMS=2.56D-10 Max=2.24D-09 NDo=     1
 Linear equations converged to 3.062D-10 3.062D-09 after     7 iterations.
 Incorrect curvature in search direction -- initial direction reversed.
     Note:  rotation exceeds Pi/2.
     Note:  rotation exceeds Pi/2.
     Note:  rotation exceeds Pi/2.
     Minimum is close to point 10 DX=  0.00D+00 DF=  0.00D+00 DXR=  0.00D+00 DFR=  0.00D+00 which will be used.
 Gradient too large for Newton-Raphson -- use scaled steepest descent instead.
     Accept linear search using points  1 and  2.
 LinEq1:  Iter=  0 NonCon=     1 RMS=4.07D-04 Max=5.29D-03 NDo=     1
 LinEq1:  Iter=  1 NonCon=     1 RMS=1.17D-04 Max=1.42D-03 NDo=     1
 LinEq1:  Iter=  2 NonCon=     1 RMS=6.27D-05 Max=3.94D-04 NDo=     1
 LinEq1:  Iter=  3 NonCon=     1 RMS=2.50D-05 Max=1.95D-04 NDo=     1
 LinEq1:  Iter=  4 NonCon=     1 RMS=1.15D-05 Max=1.05D-04 NDo=     1
 LinEq1:  Iter=  5 NonCon=     1 RMS=1.48D-06 Max=8.85D-06 NDo=     1
 LinEq1:  Iter=  6 NonCon=     1 RMS=2.46D-07 Max=1.58D-06 NDo=     1
 LinEq1:  Iter=  7 NonCon=     1 RMS=4.29D-08 Max=2.77D-07 NDo=     1
 LinEq1:  Iter=  8 NonCon=     1 RMS=2.03D-09 Max=1.29D-08 NDo=     1
 LinEq1:  Iter=  9 NonCon=     0 RMS=2.23D-10 Max=1.34D-09 NDo=     1
 Linear equations converged to 1.640D-09 1.640D-08 after     9 iterations.
     Minimum is close to point  2 DX=  2.46D-03 DF= -1.30D-10 DXR=  2.45D-03 DFR=  6.02D-06 which will be used.
 LinEq1:  Iter=  0 NonCon=     1 RMS=1.71D-06 Max=2.64D-05 NDo=     1
 LinEq1:  Iter=  1 NonCon=     1 RMS=2.22D-07 Max=2.08D-06 NDo=     1
 LinEq1:  Iter=  2 NonCon=     1 RMS=4.64D-07 Max=6.74D-06 NDo=     1
 LinEq1:  Iter=  3 NonCon=     1 RMS=2.69D-07 Max=3.36D-06 NDo=     1
 LinEq1:  Iter=  4 NonCon=     1 RMS=6.38D-08 Max=6.59D-07 NDo=     1
 LinEq1:  Iter=  5 NonCon=     1 RMS=5.89D-09 Max=5.25D-08 NDo=     1
 LinEq1:  Iter=  6 NonCon=     1 RMS=6.81D-10 Max=5.40D-09 NDo=     1
 LinEq1:  Iter=  7 NonCon=     0 RMS=8.62D-11 Max=5.75D-10 NDo=     1
 Linear equations converged to 9.988D-11 9.988D-10 after     7 iterations.
 SCF Done:  E(UB3LYP) =  -100.833873874     a.u. after   10 cycles
            Convg  =    0.1619D-07                    65 Fock formations.
              S**2 =  0.8159                  -V/T =  2.0043
 <Sx>= 0.0000 <Sy>= 0.0000 <Sz>= 0.5000 <S**2>= 0.8159 S= 0.5324
 <L.S>=  0.00000000000    
 Annihilation of the first spin contaminant:
 S**2 before annihilation     0.8159,   after     0.7500
 DoSCS=F DFT=T ScalE2(SS,OS)=  1.000000  1.000000
 Range of M.O.s used for correlation:     1    30
 NBasis=    30 NAE=     6 NBE=     5 NFC=     0 NFV=     0
 NROrb=     30 NOA=     6 NOB=     5 NVA=    24 NVB=    25
 Symmetrizing basis deriv contribution to polar:
 IMax=3 JMax=2 DiffMx= 0.00D+00
 G2DrvN: will do     4 centers at a time, making    1 passes.
 Calling FoFCou, ICntrl=  3107 FMM=F I1Cent=   0 AccDes= 0.00D+00.
 End of G2Drv F.D. properties file   721 does not exist.
 End of G2Drv F.D. properties file   722 does not exist.
 End of G2Drv F.D. properties file   788 does not exist.
          IDoAtm=111
          Differentiating once with respect to electric field.
                with respect to dipole field.
          Differentiating once with respect to nuclear coordinates.
 Keep R1 and R2 ints in memory in canonical form, NReq=7101519.
          There are    12 degrees of freedom in the 1st order CPHF.  IDoFFX=6 NUNeed=     3.
      9 vectors produced by pass  0 Test12= 2.24D-15 8.33D-09 XBig12= 6.65D+01 6.42D+00.
 AX will form     9 AO Fock derivatives at one time.
      9 vectors produced by pass  1 Test12= 2.24D-15 8.33D-09 XBig12= 1.77D+01 1.35D+00.
      9 vectors produced by pass  2 Test12= 2.24D-15 8.33D-09 XBig12= 8.46D-01 3.72D-01.
      7 vectors produced by pass  3 Test12= 2.24D-15 8.33D-09 XBig12= 1.91D-03 1.99D-02.
      7 vectors produced by pass  4 Test12= 2.24D-15 8.33D-09 XBig12= 1.15D-05 1.29D-03.
      6 vectors produced by pass  5 Test12= 2.24D-15 8.33D-09 XBig12= 7.23D-08 1.38D-04.
      3 vectors produced by pass  6 Test12= 2.24D-15 8.33D-09 XBig12= 2.32D-10 6.51D-06.
      1 vectors produced by pass  7 Test12= 2.24D-15 8.33D-09 XBig12= 1.96D-13 1.48D-07.
 InvSVY:  IOpt=1 It=  1 EMax= 6.66D-16
 Solved reduced A of dimension    51 with     9 vectors.
 Isotropic polarizability for W=    0.000000        7.93 Bohr**3.
 End of Minotr F.D. properties file   721 does not exist.
 End of Minotr F.D. properties file   722 does not exist.
 End of Minotr F.D. properties file   788 does not exist.

 **********************************************************************

            Population analysis using the SCF Density.

 **********************************************************************

 Alpha  occ. eigenvalues --  -24.64064  -1.08356  -0.41467  -0.36011  -0.36011
 Alpha  occ. eigenvalues --   -0.33864
 Alpha virt. eigenvalues --   -0.17058   0.19619   0.27088   0.93874   0.93874
 Alpha virt. eigenvalues --    1.01116   1.07191   1.23639   1.23639   1.23646
 Alpha virt. eigenvalues --    1.27710   1.27710   1.72030   2.12252   2.15578
 Alpha virt. eigenvalues --    3.83116   3.83116   3.84351   3.84351   3.97299
 Alpha virt. eigenvalues --    6.05053   6.05053   6.13006  66.62494
  Beta  occ. eigenvalues --  -24.64831  -1.10414  -0.43225  -0.36747  -0.36747
  Beta virt. eigenvalues --   -0.15652  -0.06310   0.24101   0.38568   0.94172
  Beta virt. eigenvalues --    0.94172   1.00467   1.06969   1.31873   1.31873
  Beta virt. eigenvalues --    1.45960   1.46430   1.46430   1.74080   2.20107
  Beta virt. eigenvalues --    2.44428   3.80747   3.80747   3.83968   3.83968
  Beta virt. eigenvalues --    3.94553   6.04412   6.04412   6.09651  66.61744
          Condensed to atoms (all electrons):
               1          2          3
     1  H    0.528785   0.000756   0.139993
     2  H    0.000756   0.997700  -0.000008
     3  F    0.139993  -0.000008   9.192035
          Atomic-Atomic Spin Densities.
               1          2          3
     1  H    0.234750   0.000756   0.008375
     2  H    0.000756   0.997697  -0.000008
     3  F    0.008375  -0.000008  -0.250694
 Mulliken charges and spin densities:
               1          2
     1  H    0.330467   0.243881
     2  H    0.001553   0.998445
     3  F   -0.332020  -0.242326
 Sum of Mulliken charges =  -0.00000   1.00000
 Mulliken charges and spin densities with hydrogens summed into heavy atoms:
               1          2
     3  F   -0.000000   1.000000
 APT charges:
               1
     1  H    0.136573
     2  H   -0.004727
     3  F   -0.131845
 Sum of APT charges =  -0.00000
 APT charges with hydrogens summed into heavy atoms:
               1
     3  F   -0.000000
 Electronic spatial extent (au):  <R**2>=            147.0882
 Charge=             -0.0000 electrons
 Dipole moment (field-independent basis, Debye):
    X=             -2.6240    Y=              0.0000    Z=             -0.0000  Tot=              2.6240
 Quadrupole moment (field-independent basis, Debye-Ang):
   XX=            -10.1876   YY=             -7.3679   ZZ=             -7.3679
   XY=              0.0000   XZ=             -0.0000   YZ=             -0.0000
 Traceless Quadrupole moment (field-independent basis, Debye-Ang):
   XX=             -1.8798   YY=              0.9399   ZZ=              0.9399
   XY=              0.0000   XZ=             -0.0000   YZ=             -0.0000
 Octapole moment (field-independent basis, Debye-Ang**2):
  XXX=            -13.4273  YYY=              0.0000  ZZZ=              0.0000  XYY=             -3.3222
  XXY=              0.0000  XXZ=             -0.0000  XZZ=             -3.3222  YZZ=              0.0000
  YYZ=              0.0000  XYZ=             -0.0000
 Hexadecapole moment (field-independent basis, Debye-Ang**3):
 XXXX=           -188.8474 YYYY=             -5.6274 ZZZZ=             -5.6274 XXXY=              0.0000
 XXXZ=             -0.0000 YYYX=              0.0000 YYYZ=             -0.0000 ZZZX=             -0.0000
 ZZZY=             -0.0000 XXYY=            -32.8855 XXZZ=            -32.8855 YYZZ=             -1.8758
 XXYZ=             -0.0000 YYXZ=             -0.0000 ZZXY=              0.0000
 N-N= 4.039499115410D+00 E-N=-2.496513859816D+02  KE= 1.004044594645D+02
  Exact polarizability:      19.500      -0.000       2.147      -0.000      -0.000       2.147
 Approx polarizability:      34.503       0.000       2.061       0.000      -0.000       2.061
                          Isotropic Fermi Contact Couplings
        Atom                 a.u.       MegaHertz       Gauss      10(-4) cm-1
     1  H(1)               0.08486     379.30574     135.34572     126.52277
     2  H(1)               0.29665    1325.99712     473.14875     442.30503
     3  F(19)              0.04723     198.73665      70.91418      66.29141
 --------------------------------------------------------
       Center         ----  Spin Dipole Couplings  ----
                      3XX-RR        3YY-RR        3ZZ-RR
 --------------------------------------------------------
     1   Atom       -0.015550      0.007775      0.007775
     2   Atom        0.001088     -0.000544     -0.000544
     3   Atom       -1.573396      0.786698      0.786698
 --------------------------------------------------------
                        XY            XZ            YZ
 --------------------------------------------------------
     1   Atom        0.000000      0.000000      0.000000
     2   Atom        0.000000      0.000000      0.000000
     3   Atom        0.000000      0.000000      0.000000
 --------------------------------------------------------


 ---------------------------------------------------------------------------------
              Anisotropic Spin Dipole Couplings in Principal Axis System
 ---------------------------------------------------------------------------------

       Atom             a.u.   MegaHertz   Gauss  10(-4) cm-1        Axes

              Baa    -0.0156    -8.297    -2.961    -2.768  1.0000 -0.0000 -0.0000
     1 H(1)   Bbb     0.0078     4.148     1.480     1.384  0.0000 -0.0000  1.0000
              Bcc     0.0078     4.148     1.480     1.384  0.0000  1.0000  0.0000
 
              Baa    -0.0005    -0.290    -0.104    -0.097 -0.0000  0.0000  1.0000
     2 H(1)   Bbb    -0.0005    -0.290    -0.104    -0.097 -0.0000  1.0000 -0.0000
              Bcc     0.0011     0.580     0.207     0.194  1.0000  0.0000  0.0000
 
              Baa    -1.5734  -790.200  -281.963  -263.582  1.0000 -0.0000 -0.0000
     3 F(19)  Bbb     0.7867   395.100   140.981   131.791  0.0000 -0.0000  1.0000
              Bcc     0.7867   395.100   140.981   131.791  0.0000  1.0000  0.0000
 

 ---------------------------------------------------------------------------------

 Calling FoFJK, ICntrl=    100127 FMM=F ISym2X=0 I1Cent= 0 IOpClX= 1 NMat=1 NMatS=1 NMatT=0.
 Full mass-weighted force constant matrix:
 Low frequencies ----1920.3345  -60.4967   -0.0016    0.0009    0.0009   17.3250
 Low frequencies ---   17.3250  957.5004  957.5004
 ******    2 imaginary frequencies (negative Signs) ****** 
 Diagonal vibrational polarizability:
        2.7478955       3.3456288       3.3456288
 Harmonic frequencies (cm**-1), IR intensities (KM/Mole), Raman scattering
 activities (A**4/AMU), depolarization ratios for plane and unpolarized
 incident light, reduced masses (AMU), force constants (mDyne/A),
 and normal coordinates:
                      1                      2                      3
                      A                      A                      A
 Frequencies --  -1920.3345               -60.4967               914.1269
 Red. masses --      1.0586                 1.0529                 1.0300
 Frc consts  --      2.3001                 0.0023                 0.5071
 IR Inten    --     69.5884                 0.3046               103.8861
  Atom  AN      X      Y      Z        X      Y      Z        X      Y      Z
     1   1     1.00  -0.00  -0.00    -0.05  -0.00   0.00     0.00   0.95  -0.03
     2   1     0.00   0.00   0.00     1.00   0.00  -0.00     0.00  -0.29   0.01
     3   9    -0.05   0.00   0.00    -0.05   0.00  -0.00    -0.00  -0.04   0.00
                      4
                      A
 Frequencies --    914.1269
 Red. masses --      1.0300
 Frc consts  --      0.5071
 IR Inten    --    103.8861
  Atom  AN      X      Y      Z
     1   1     0.00   0.03   0.95
     2   1    -0.00  -0.01  -0.29
     3   9    -0.00  -0.00  -0.04

 -------------------
 - Thermochemistry -
 -------------------
 Temperature   298.150 Kelvin.  Pressure   1.00000 Atm.
 Atom     1 has atomic number  1 and mass   1.00783
 Atom     2 has atomic number  1 and mass   1.00783
 Atom     3 has atomic number  9 and mass  18.99840
 Molecular mass:    21.01405 amu.
 Principal axes and moments of inertia in atomic units:
                           1         2         3
     Eigenvalues --     0.00000  98.54931  98.54931
           X            1.00000  -0.00000   0.00000
           Y            0.00000   1.00000   0.00000
           Z            0.00000   0.00000   1.00000
 This molecule is a prolate symmetric top.
 Rotational symmetry number  1.
 Rotational temperature (Kelvin)      0.87889
 Rotational constant (GHZ):          18.313078
    2 imaginary frequencies ignored.
 Zero-point vibrational energy      10935.4 (Joules/Mol)
                                    2.61362 (Kcal/Mol)
 Vibrational temperatures:   1315.22  1315.22
          (Kelvin)
 
 Zero-point correction=                           0.004165 (Hartree/Particle)
 Thermal correction to Energy=                    0.006628
 Thermal correction to Enthalpy=                  0.007572
 Thermal correction to Gibbs Free Energy=        -0.016315
 Sum of electronic and zero-point Energies=           -100.829709
 Sum of electronic and thermal Energies=              -100.827246
 Sum of electronic and thermal Enthalpies=            -100.826302
 Sum of electronic and thermal Free Energies=         -100.850189
 
                     E (Thermal)             CV                S
                      KCal/Mol        Cal/Mol-Kelvin    Cal/Mol-Kelvin
 Total                    4.159              5.930             50.275
 Electronic               0.000              0.000              1.377
 Translational            0.889              2.981             35.068
 Rotational               0.592              1.987             13.566
 Vibrational              2.678              0.962              0.264
                       Q            Log10(Q)             Ln(Q)
 Total Bot       0.319566D+08          7.504561         17.279891
 Total V=0       0.263244D+10          9.420358         21.691176
 Vib (Bot)       0.124398D-01         -1.905188         -4.386858
 Vib (V=0)       0.102473D+01          0.010609          0.024428
 Electronic      0.200000D+01          0.301030          0.693147
 Translational   0.378633D+07          6.578219         15.146908
 Rotational      0.339235D+03          2.530501          5.826693
 -------------------------------------------------------------------
 Center     Atomic                   Forces (Hartrees/Bohr)
 Number     Number              X              Y              Z
 -------------------------------------------------------------------
      1        1           0.100270858   -0.000000000   -0.000000000
      2        1           0.000070772   -0.000000000   -0.000000000
      3        9          -0.100341630    0.000000000    0.000000000
 -------------------------------------------------------------------
 Cartesian Forces:  Max     0.100341630 RMS     0.047284826

 GradGradGradGradGradGradGradGradGradGradGradGradGradGradGradGradGradGrad
 Berny optimization.
 Search for a local minimum.
 Step number   1 out of a maximum of    2
 All quantities printed in internal units (Hartrees-Bohrs-Radians)
 Second derivative matrix not updated -- analytic derivatives used.
 The second derivative matrix:
                          X1        Y1        Z1        X2        Y2
           X1          -0.13352
           Y1           0.00000   0.03321
           Z1           0.00000   0.00000   0.03321
           X2          -0.00040   0.00000  -0.00000  -0.00013
           Y2          -0.00000  -0.00001   0.00000  -0.00000   0.00001
           Z2           0.00000   0.00000  -0.00001   0.00000  -0.00000
           X3           0.13392  -0.00000  -0.00000   0.00053   0.00000
           Y3          -0.00000  -0.03319  -0.00000  -0.00000   0.00000
           Z3          -0.00000  -0.00000  -0.03319   0.00000  -0.00000
                          Z2        X3        Y3        Z3
           Z2           0.00001
           X3          -0.00000  -0.13445
           Y3          -0.00000   0.00000   0.03319
           Z3           0.00000   0.00000   0.00000   0.03319
 ITU=  0
     Eigenvalues ---   -0.21903  -0.00018   0.04382   0.04382
 Eigenvalue     1 is  -2.19D-01 should be greater than     0.000000 Eigenvector:
                          X1        X3        X2        Y1        Z1
   1                    0.92313  -0.35606   0.14506  -0.00000  -0.00000
                          Y2        Y3        Z2        Z3
   1                    0.00000   0.00000   0.00000   0.00000
 Eigenvalue     2 is  -1.84D-04 should be greater than     0.000000 Eigenvector:
                          X2        X1        X3        Z1        Y1
   1                    0.94236  -0.23857  -0.23460   0.00000  -0.00000
                          Z2        Z3        Y2        Y3
   1                   -0.00000  -0.00000   0.00000   0.00000
 Quadratic step=1.806D+00 exceeds max=3.000D-01 adjusted using Lamda=-2.084D-01.
 Angle between NR and scaled steps=  70.78 degrees.
 Angle between quadratic step and forces=  25.25 degrees.
 Linear search not attempted -- first point.
 B after Tr=    -0.071023   -0.000000    0.000000
         Rot=    0.895896    0.444265    0.000000    0.000000 Ang=  52.75 deg.
 Variable       Old X    -DE/DX   Delta X   Delta X   Delta X     New X
                                 (Linear)    (Quad)   (Total)
    X1        0.00000   0.10027   0.00000   0.27748   0.20646   0.20646
    Y1        0.00000  -0.00000   0.00000   0.00000   0.00000   0.00000
    Z1        0.00000  -0.00000   0.00000   0.00000  -0.00000  -0.00000
    X2       -6.80301   0.00007   0.00000   0.04212  -0.02890  -6.83191
    Y2        0.00000  -0.00000   0.00000  -0.00000  -0.00000  -0.00000
    Z2        0.00000  -0.00000   0.00000  -0.00000   0.00000   0.00000
    X3        3.02356  -0.10034   0.00000  -0.10654  -0.17756   2.84600
    Y3        0.00000   0.00000   0.00000  -0.00000  -0.00000  -0.00000
    Z3        0.00000   0.00000   0.00000  -0.00000   0.00000   0.00000
         Item               Value     Threshold  Converged?
 Maximum Force            0.100342     0.000450     NO 
 RMS     Force            0.047285     0.000300     NO 
 Maximum Displacement     0.206458     0.001800     NO 
 RMS     Displacement     0.091279     0.001200     NO 
 Predicted change in Energy=-4.838539D-02
 GradGradGradGradGradGradGradGradGradGradGradGradGradGradGradGradGradGrad


 ----------------------------------------------------------------------

 Electric dipole moment (input orientation):
 (Debye = 10**-18 statcoulomb cm , SI units = C m)
                  (au)            (Debye)         (10**-30 SI)
   Tot        0.103237D+01      0.262403D+01      0.875282D+01
   x         -0.103237D+01     -0.262403D+01     -0.875282D+01
   y          0.000000D+00      0.000000D+00      0.000000D+00
   z          0.000000D+00      0.000000D+00      0.000000D+00

 Dipole polarizability, Alpha (input orientation).
 (esu units = cm**3 , SI units = C**2 m**2 J**-1)
 Alpha(0;0):
               (au)            (10**-24 esu)      (10**-40 SI)
   iso        0.793141D+01      0.117531D+01      0.130771D+01
   aniso      0.173524D+02      0.257136D+01      0.286103D+01
   xx         0.194997D+02      0.288956D+01      0.321506D+01
   yx         0.000000D+00      0.000000D+00      0.000000D+00
   yy         0.214728D+01      0.318194D+00      0.354038D+00
   zx         0.000000D+00      0.000000D+00      0.000000D+00
   zy         0.000000D+00      0.000000D+00      0.000000D+00
   zz         0.214728D+01      0.318194D+00      0.354038D+00

 ----------------------------------------------------------------------

 Dipole orientation:
     1          0.00000000          0.00000000          0.00000000
     1          0.00000000         -0.00000000          6.80301405
     9         -0.00000000          0.00000000         -3.02356180

 Electric dipole moment (dipole orientation):
 (Debye = 10**-18 statcoulomb cm , SI units = C m)
                  (au)            (Debye)         (10**-30 SI)
   Tot        0.103237D+01      0.262403D+01      0.875282D+01
   x          0.000000D+00      0.000000D+00      0.000000D+00
   y          0.000000D+00      0.000000D+00      0.000000D+00
   z          0.103237D+01      0.262403D+01      0.875282D+01

 Dipole polarizability, Alpha (dipole orientation).
 (esu units = cm**3 , SI units = C**2 m**2 J**-1)
 Alpha(0;0):
               (au)            (10**-24 esu)      (10**-40 SI)
   iso        0.793141D+01      0.117531D+01      0.130771D+01
   aniso      0.173524D+02      0.257136D+01      0.286103D+01
   xx         0.214728D+01      0.318194D+00      0.354038D+00
   yx         0.000000D+00      0.000000D+00      0.000000D+00
   yy         0.214728D+01      0.318194D+00      0.354038D+00
   zx         0.000000D+00      0.000000D+00      0.000000D+00
   zy         0.000000D+00      0.000000D+00      0.000000D+00
   zz         0.194997D+02      0.288956D+01      0.321506D+01

 ----------------------------------------------------------------------
 Unable to Open any file for archive entry.
 1\1\GINC-DESKTOP-B3RIHJD\Freq\UB3LYP\6-311G(d,p)\F1H2(2)\GARYX\22-Aug-
 2025\0\\# sp b3lyp/6-311g** Force nosymm scf=(qc)\\Title Card Required
 \\0,2\H,0.,0.,0.\H,-3.6,0.,0.\F,1.6,0.,0.\\Version=ES64L-G16RevC.01\HF
 =-100.8338739\S2=0.815854\S2-1=0.\S2A=0.750009\RMSD=9.873e-10\RMSF=4.7
 28e-02\ZeroPoint=0.0041651\Thermal=0.0066279\ETot=-100.827246\HTot=-10
 0.8263018\GTot=-100.8501893\Dipole=-1.0323725,0.,0.\DipoleDeriv=-0.260
 4075,0.,0.,0.,0.3350627,0.,0.,0.,0.3350627,-0.0181088,0.,0.,0.,0.00196
 36,0.,0.,0.,0.0019636,0.2785164,0.,0.,0.,-0.3370263,0.,0.,0.,-0.337026
 3\Polar=19.4996841,0.,2.1472775,0.,0.,2.1472775\Quadrupole=-1.3975663,
 0.6987832,0.6987832,0.,0.,0.\PG=C*V [C*(H1H1F1)]\NImag=2\\-0.13352011,
 0.,0.03320647,0.,0.,0.03320647,-0.00039817,0.,0.,-0.00013412,0.,-0.000
 01264,0.,0.,0.00001090,0.,0.,-0.00001264,0.,0.,0.00001090,0.13391828,0
 .,0.,0.00053229,0.,0.,-0.13445057,0.,-0.03319383,0.,0.,0.00000174,0.,0
 .,0.03319209,0.,0.,-0.03319383,0.,0.,0.00000174,0.,0.,0.03319209\\-0.1
 0027086,0.,0.,-0.00007077,0.,0.,0.10034163,0.,0.\\\@
 The archive entry for this job was punched.


 ... A MOLECULAR SYSTEM ... (PASSES) ... FROM ONE STATE OF EQUILIBRIUM 
 TO ANOTHER ... BY MEANS OF ALL POSSIBLE INTERMEDIATE PATHS, 
 BUT THE PATH MOST ECONOMICAL OF ENERGY WILL BE THE MORE OFTEN TRAVELED.

                      -- HENRY EYRING, 1945
 Job cpu time:       0 days  0 hours  0 minutes 18.4 seconds.
 Elapsed time:       0 days  0 hours  0 minutes  2.5 seconds.
 File lengths (MBytes):  RWF=      6 Int=      0 D2E=      0 Chk=      1 Scr=      1
 Normal termination of Gaussian 16 at Fri Aug 22 16:32:38 2025.
