 Entering Gaussian System, Link 0=g16
 Initial command:
 /home/garyx/gaussian/g16/l1.exe "/tmp/gaussian_scratch/Gau-438465.inp" -scrdir="/tmp/gaussian_scratch/"
 Entering Link 1 = /home/garyx/gaussian/g16/l1.exe PID=    438467.
  
 Copyright (c) 1988-2019, Gaussian, Inc.  All Rights Reserved.
  
 This is part of the Gaussian(R) 16 program.  It is based on
 the Gaussian(R) 09 system (copyright 2009, Gaussian, Inc.),
 the Gaussian(R) 03 system (copyright 2003, Gaussian, Inc.),
 the Gaussian(R) 98 system (copyright 1998, Gaussian, Inc.),
 the Gaussian(R) 94 system (copyright 1995, Gaussian, Inc.),
 the Gaussian 92(TM) system (copyright 1992, Gaussian, Inc.),
 the Gaussian 90(TM) system (copyright 1990, Gaussian, Inc.),
 the Gaussian 88(TM) system (copyright 1988, Gaussian, Inc.),
 the Gaussian 86(TM) system (copyright 1986, Carnegie Mellon
 University), and the Gaussian 82(TM) system (copyright 1983,
 Carnegie Mellon University). Gaussian is a federally registered
 trademark of Gaussian, Inc.
  
 This software contains proprietary and confidential information,
 including trade secrets, belonging to Gaussian, Inc.
  
 This software is provided under written license and may be
 used, copied, transmitted, or stored only in accord with that
 written license.
  
 The following legend is applicable only to US Government
 contracts under FAR:
  
                    RESTRICTED RIGHTS LEGEND
  
 Use, reproduction and disclosure by the US Government is
 subject to restrictions as set forth in subparagraphs (a)
 and (c) of the Commercial Computer Software - Restricted
 Rights clause in FAR 52.227-19.
  
 Gaussian, Inc.
 340 Quinnipiac St., Bldg. 40, Wallingford CT 06492
  
  
 ---------------------------------------------------------------
 Warning -- This program may not be used in any manner that
 competes with the business of Gaussian, Inc. or will provide
 assistance to any competitor of Gaussian, Inc.  The licensee
 of this program is prohibited from giving any competitor of
 Gaussian, Inc. access to this program.  By using this program,
 the user acknowledges that Gaussian, Inc. is engaged in the
 business of creating and licensing software in the field of
 computational chemistry and represents and warrants to the
 licensee that it is not a competitor of Gaussian, Inc. and that
 it will not use this program in any manner prohibited above.
 ---------------------------------------------------------------
  

 Cite this work as:
 Gaussian 16, Revision C.01,
 M. J. Frisch, G. W. Trucks, H. B. Schlegel, G. E. Scuseria, 
 M. A. Robb, J. R. Cheeseman, G. Scalmani, V. Barone, 
 G. A. Petersson, H. Nakatsuji, X. Li, M. Caricato, A. V. Marenich, 
 J. Bloino, B. G. Janesko, R. Gomperts, B. Mennucci, H. P. Hratchian, 
 J. V. Ortiz, A. F. Izmaylov, J. L. Sonnenberg, D. Williams-Young, 
 F. Ding, F. Lipparini, F. Egidi, J. Goings, B. Peng, A. Petrone, 
 T. Henderson, D. Ranasinghe, V. G. Zakrzewski, J. Gao, N. Rega, 
 G. Zheng, W. Liang, M. Hada, M. Ehara, K. Toyota, R. Fukuda, 
 J. Hasegawa, M. Ishida, T. Nakajima, Y. Honda, O. Kitao, H. Nakai, 
 T. Vreven, K. Throssell, J. A. Montgomery, Jr., J. E. Peralta, 
 F. Ogliaro, M. J. Bearpark, J. J. Heyd, E. N. Brothers, K. N. Kudin, 
 V. N. Staroverov, T. A. Keith, R. Kobayashi, J. Normand, 
 K. Raghavachari, A. P. Rendell, J. C. Burant, S. S. Iyengar, 
 J. Tomasi, M. Cossi, J. M. Millam, M. Klene, C. Adamo, R. Cammi, 
 J. W. Ochterski, R. L. Martin, K. Morokuma, O. Farkas, 
 J. B. Foresman, and D. J. Fox, Gaussian, Inc., Wallingford CT, 2019.
 
 ******************************************
 Gaussian 16:  ES64L-G16RevC.01  3-Jul-2019
                22-Aug-2025 
 ******************************************
 %mem=10GB
 %nprocs=8
 Will use up to    8 processors via shared memory.
 -----------------------------------------
 # sp b3lyp/6-311g** Force nosymm scf=(qc)
 -----------------------------------------
 1/10=4,30=1,38=1/1,3;
 2/12=2,15=1,17=6,18=5,40=1/2;
 3/5=4,6=6,7=101,11=2,25=1,30=1,71=2,74=-5,140=1/1,2,3;
 4//1;
 5/5=2,8=3,38=5,98=1/8;
 8/6=4,10=90,11=11/1;
 11/6=1,8=1,9=11,15=111,16=1,31=1/1,2,10;
 10/6=1,31=1/2;
 6/7=2,8=2,9=2,10=2,28=1/1;
 7/8=1,10=1,25=1,30=1/1,2,3,16;
 1/10=4,30=1/3;
 99//99;
 -------------------
 Title Card Required
 -------------------
 Symbolic Z-matrix:
 Charge =  0 Multiplicity = 2
 H                     0.        0.        0. 
 H                    -3.8       0.        0. 
 F                     1.9       0.        0. 
 

 GradGradGradGradGradGradGradGradGradGradGradGradGradGradGradGradGradGrad
 Berny optimization.
 Initialization pass.
 Trust Radius=3.00D-01 FncErr=1.00D-07 GrdErr=1.00D-07 EigMax=2.50D+02 EigMin=1.00D-04
 Number of steps in this run=      2 maximum allowed number of steps=      2.
 GradGradGradGradGradGradGradGradGradGradGradGradGradGradGradGradGradGrad

                          Input orientation:                          
 ---------------------------------------------------------------------
 Center     Atomic      Atomic             Coordinates (Angstroms)
 Number     Number       Type             X           Y           Z
 ---------------------------------------------------------------------
      1          1           0        0.000000    0.000000    0.000000
      2          1           0       -3.800000    0.000000    0.000000
      3          9           0        1.900000    0.000000    0.000000
 ---------------------------------------------------------------------
                    Distance matrix (angstroms):
                    1          2          3
     1  H    0.000000
     2  H    3.800000   0.000000
     3  F    1.900000   5.700000   0.000000
 Symmetry turned off by external request.
 Stoichiometry    FH2(2)
 Framework group  C*V[C*(HHF)]
 Deg. of freedom     2
 Full point group                 C*V     NOp   4
 Rotational constants (GHZ):           0.0000000          15.0452231          15.0452231
 Standard basis: 6-311G(d,p) (5D, 7F)
    30 basis functions,    48 primitive gaussians,    31 cartesian basis functions
     6 alpha electrons        5 beta electrons
       nuclear repulsion energy         3.4814290192 Hartrees.
 NAtoms=    3 NActive=    3 NUniq=    3 SFac= 1.00D+00 NAtFMM=   60 NAOKFM=F Big=F
 Integral buffers will be    131072 words long.
 Raffenetti 2 integral format.
 Two-electron integral symmetry is turned off.
 One-electron integrals computed using PRISM.
 NBasis=    30 RedAO= T EigKep=  8.87D-02  NBF=    30
 NBsUse=    30 1.00D-06 EigRej= -1.00D+00 NBFU=    30
 ExpMin= 1.03D-01 ExpMax= 1.14D+04 ExpMxC= 1.72D+03 IAcc=3 IRadAn=         5 AccDes= 0.00D+00
 Harris functional with IExCor=  402 and IRadAn=       5 diagonalized for initial guess.
 HarFok:  IExCor=  402 AccDes= 0.00D+00 IRadAn=         5 IDoV= 1 UseB2=F ITyADJ=14
 ICtDFT=  3500011 ScaDFX=  1.000000  1.000000  1.000000  1.000000
 FoFCou: FMM=F IPFlag=           0 FMFlag=      100000 FMFlg1=           0
         NFxFlg=           0 DoJE=T BraDBF=F KetDBF=T FulRan=T
         wScrn=  0.000000 ICntrl=       500 IOpCl=  0 I1Cent=   200000004 NGrid=           0
         NMat0=    1 NMatS0=      1 NMatT0=    0 NMatD0=    1 NMtDS0=    0 NMtDT0=    0
 Symmetry not used in FoFCou.
 Initial guess <Sx>= 0.0000 <Sy>= 0.0000 <Sz>= 0.5000 <S**2>= 0.7500 S= 0.5000
 Keep R1 and R2 ints in memory in canonical form, NReq=7127049.
 Gradient too large for Newton-Raphson -- use scaled steepest descent instead.
  Beta Gap=    -0.106 HL deriv= 4.77D-17 Rot set to   3.10D-01
     Minimum is close to point  3 DX=  2.89D-02 DF= -4.88D-04 DXR=  6.73D-02 DFR=  4.86D-03 which will be used.
 Gradient too large for Newton-Raphson -- use scaled steepest descent instead.
     Accept linear search using points  1 and  2.
 Gradient too large for Newton-Raphson -- use scaled steepest descent instead.
     Accept linear search using points  2 and  3.
 Gradient too large for Newton-Raphson -- use scaled steepest descent instead.
     Accept linear search using points  1 and  2.
 Gradient too large for Newton-Raphson -- use scaled steepest descent instead.
     Minimum is close to point  2 DX=  1.69D-02 DF= -1.35D-06 DXR=  3.27D-02 DFR=  1.07D-03 which will be used.
 Gradient too large for Newton-Raphson -- use scaled steepest descent instead.
     Accept linear search using points  1 and  2.
 Gradient too large for Newton-Raphson -- use scaled steepest descent instead.
     Minimum is close to point  2 DX=  5.43D-02 DF= -2.36D-06 DXR=  9.79D-02 DFR=  9.68D-03 which will be used.
 Gradient too large for Newton-Raphson -- use scaled steepest descent instead.
     Minimum is close to point  2 DX= -1.47D-02 DF= -2.65D-07 DXR=  5.13D-02 DFR=  2.64D-03 which will be used.
 LinEq1:  Iter=  0 NonCon=     1 RMS=1.50D-03 Max=1.74D-02 NDo=     1
 AX will form     1 AO Fock derivatives at one time.
 LinEq1:  Iter=  1 NonCon=     1 RMS=3.93D-03 Max=5.82D-02 NDo=     1
 LinEq1:  Iter=  2 NonCon=     1 RMS=3.90D-03 Max=4.13D-02 NDo=     1
 LinEq1:  Iter=  3 NonCon=     1 RMS=6.16D-04 Max=6.84D-03 NDo=     1
 LinEq1:  Iter=  4 NonCon=     1 RMS=2.23D-04 Max=2.11D-03 NDo=     1
 LinEq1:  Iter=  5 NonCon=     1 RMS=1.04D-04 Max=1.31D-03 NDo=     1
 LinEq1:  Iter=  6 NonCon=     1 RMS=3.01D-05 Max=2.51D-04 NDo=     1
 LinEq1:  Iter=  7 NonCon=     1 RMS=6.09D-06 Max=5.14D-05 NDo=     1
 LinEq1:  Iter=  8 NonCon=     1 RMS=1.05D-06 Max=9.95D-06 NDo=     1
 LinEq1:  Iter=  9 NonCon=     1 RMS=4.05D-08 Max=2.54D-07 NDo=     1
 LinEq1:  Iter= 10 NonCon=     1 RMS=6.09D-09 Max=2.43D-08 NDo=     1
 LinEq1:  Iter= 11 NonCon=     0 RMS=1.24D-09 Max=5.96D-09 NDo=     1
 Linear equations converged to 1.640D-09 1.640D-08 after    11 iterations.
 LinEq1:  Iter=  0 NonCon=     1 RMS=2.03D-04 Max=2.03D-03 NDo=     1
 LinEq1:  Iter=  1 NonCon=     1 RMS=3.42D-04 Max=5.19D-03 NDo=     1
 LinEq1:  Iter=  2 NonCon=     1 RMS=6.39D-04 Max=7.50D-03 NDo=     1
 LinEq1:  Iter=  3 NonCon=     1 RMS=8.54D-05 Max=7.46D-04 NDo=     1
 LinEq1:  Iter=  4 NonCon=     1 RMS=4.23D-05 Max=3.91D-04 NDo=     1
 LinEq1:  Iter=  5 NonCon=     1 RMS=1.77D-05 Max=1.28D-04 NDo=     1
 LinEq1:  Iter=  6 NonCon=     1 RMS=2.60D-06 Max=2.53D-05 NDo=     1
 LinEq1:  Iter=  7 NonCon=     1 RMS=8.75D-07 Max=6.73D-06 NDo=     1
 LinEq1:  Iter=  8 NonCon=     1 RMS=1.24D-07 Max=6.65D-07 NDo=     1
 LinEq1:  Iter=  9 NonCon=     1 RMS=6.62D-09 Max=6.25D-08 NDo=     1
 LinEq1:  Iter= 10 NonCon=     0 RMS=1.04D-09 Max=4.37D-09 NDo=     1
 Linear equations converged to 1.640D-09 1.640D-08 after    10 iterations.
     Accept linear search using points  1 and  2.
     Minimum is close to point  2 DX= -2.67D-02 DF= -2.42D-10 DXR=  2.75D-02 DFR=  7.68D-04 which will be used.
 LinEq1:  Iter=  0 NonCon=     1 RMS=3.05D-06 Max=3.05D-05 NDo=     1
 LinEq1:  Iter=  1 NonCon=     1 RMS=5.67D-06 Max=5.33D-05 NDo=     1
 LinEq1:  Iter=  2 NonCon=     1 RMS=1.23D-06 Max=1.28D-05 NDo=     1
 LinEq1:  Iter=  3 NonCon=     1 RMS=3.36D-07 Max=4.29D-06 NDo=     1
 LinEq1:  Iter=  4 NonCon=     1 RMS=1.18D-07 Max=1.00D-06 NDo=     1
 LinEq1:  Iter=  5 NonCon=     1 RMS=1.05D-07 Max=8.40D-07 NDo=     1
 LinEq1:  Iter=  6 NonCon=     1 RMS=2.29D-08 Max=2.42D-07 NDo=     1
 LinEq1:  Iter=  7 NonCon=     1 RMS=2.07D-09 Max=1.46D-08 NDo=     1
 LinEq1:  Iter=  8 NonCon=     1 RMS=3.61D-10 Max=3.65D-09 NDo=     1
 LinEq1:  Iter=  9 NonCon=     0 RMS=3.51D-11 Max=2.74D-10 NDo=     1
 Linear equations converged to 1.507D-10 1.507D-09 after     9 iterations.
 SCF Done:  E(UB3LYP) =  -100.781388028     a.u. after   12 cycles
            Convg  =    0.8852D-08                    54 Fock formations.
              S**2 =  0.7500                  -V/T =  2.0041
 <Sx>= 0.0000 <Sy>= 0.0000 <Sz>= 0.5000 <S**2>= 0.7500 S= 0.5000
 <L.S>=  0.00000000000    
 Annihilation of the first spin contaminant:
 S**2 before annihilation     0.7500,   after     0.7500
 DoSCS=F DFT=T ScalE2(SS,OS)=  1.000000  1.000000
 Range of M.O.s used for correlation:     1    30
 NBasis=    30 NAE=     6 NBE=     5 NFC=     0 NFV=     0
 NROrb=     30 NOA=     6 NOB=     5 NVA=    24 NVB=    25
 Symmetrizing basis deriv contribution to polar:
 IMax=3 JMax=2 DiffMx= 0.00D+00
 G2DrvN: will do     4 centers at a time, making    1 passes.
 Calling FoFCou, ICntrl=  3107 FMM=F I1Cent=   0 AccDes= 0.00D+00.
 End of G2Drv F.D. properties file   721 does not exist.
 End of G2Drv F.D. properties file   722 does not exist.
 End of G2Drv F.D. properties file   788 does not exist.
          IDoAtm=111
          Differentiating once with respect to electric field.
                with respect to dipole field.
          Differentiating once with respect to nuclear coordinates.
 Keep R1 and R2 ints in memory in canonical form, NReq=7101519.
          There are    12 degrees of freedom in the 1st order CPHF.  IDoFFX=6 NUNeed=     3.
      9 vectors produced by pass  0 Test12= 2.24D-15 8.33D-09 XBig12= 2.11D+02 1.01D+01.
 AX will form     9 AO Fock derivatives at one time.
      9 vectors produced by pass  1 Test12= 2.24D-15 8.33D-09 XBig12= 5.85D+01 2.98D+00.
      9 vectors produced by pass  2 Test12= 2.24D-15 8.33D-09 XBig12= 4.58D-01 2.81D-01.
      9 vectors produced by pass  3 Test12= 2.24D-15 8.33D-09 XBig12= 2.55D-03 2.10D-02.
      7 vectors produced by pass  4 Test12= 2.24D-15 8.33D-09 XBig12= 1.21D-06 4.16D-04.
      5 vectors produced by pass  5 Test12= 2.24D-15 8.33D-09 XBig12= 1.11D-09 1.09D-05.
      1 vectors produced by pass  6 Test12= 2.24D-15 8.33D-09 XBig12= 3.13D-12 7.23D-07.
      1 vectors produced by pass  7 Test12= 2.24D-15 8.33D-09 XBig12= 1.02D-14 3.26D-08.
 InvSVY:  IOpt=1 It=  1 EMax= 6.66D-16
 Solved reduced A of dimension    50 with     9 vectors.
 Isotropic polarizability for W=    0.000000        9.64 Bohr**3.
 End of Minotr F.D. properties file   721 does not exist.
 End of Minotr F.D. properties file   722 does not exist.
 End of Minotr F.D. properties file   788 does not exist.

 **********************************************************************

            Population analysis using the SCF Density.

 **********************************************************************

 Alpha  occ. eigenvalues --  -24.64125  -1.08436  -0.39246  -0.35757  -0.35757
 Alpha  occ. eigenvalues --   -0.33807
 Alpha virt. eigenvalues --   -0.21930   0.19813   0.26972   0.90513   0.96436
 Alpha virt. eigenvalues --    0.96436   1.08344   1.23665   1.23693   1.23693
 Alpha virt. eigenvalues --    1.24523   1.24523   1.59900   2.11589   2.16073
 Alpha virt. eigenvalues --    3.82199   3.82199   3.83959   3.84706   3.84706
 Alpha virt. eigenvalues --    6.04708   6.04708   6.11855  66.60522
  Beta  occ. eigenvalues --  -24.64128  -1.08445  -0.39243  -0.35760  -0.35760
  Beta virt. eigenvalues --   -0.21950  -0.06661   0.22434   0.37956   0.90538
  Beta virt. eigenvalues --    0.96438   0.96438   1.08350   1.24569   1.24569
  Beta virt. eigenvalues --    1.45780   1.46159   1.46159   1.59943   2.14023
  Beta virt. eigenvalues --    2.43022   3.82189   3.82189   3.83947   3.84704
  Beta virt. eigenvalues --    3.84704   6.04706   6.04706   6.11841  66.60519
          Condensed to atoms (all electrons):
               1          2          3
     1  H    0.585516   0.000655   0.111507
     2  H    0.000655   0.997751  -0.000002
     3  F    0.111507  -0.000002   9.192413
          Atomic-Atomic Spin Densities.
               1          2          3
     1  H    0.002019   0.000601  -0.000070
     2  H    0.000601   0.997739  -0.000002
     3  F   -0.000070  -0.000002  -0.000818
 Mulliken charges and spin densities:
               1          2
     1  H    0.302322   0.002551
     2  H    0.001595   0.998339
     3  F   -0.303917  -0.000890
 Sum of Mulliken charges =   0.00000   1.00000
 Mulliken charges and spin densities with hydrogens summed into heavy atoms:
               1          2
     3  F    0.000000   1.000000
 APT charges:
               1
     1  H    0.267858
     2  H   -0.004572
     3  F   -0.263286
 Sum of APT charges =   0.00000
 APT charges with hydrogens summed into heavy atoms:
               1
     3  F    0.000000
 Electronic spatial extent (au):  <R**2>=            187.2640
 Charge=              0.0000 electrons
 Dipole moment (field-independent basis, Debye):
    X=             -2.9223    Y=             -0.0000    Z=             -0.0000  Tot=              2.9223
 Quadrupole moment (field-independent basis, Debye-Ang):
   XX=            -11.4725   YY=             -7.4948   ZZ=             -7.4948
   XY=             -0.0000   XZ=             -0.0000   YZ=             -0.0000
 Traceless Quadrupole moment (field-independent basis, Debye-Ang):
   XX=             -2.6518   YY=              1.3259   ZZ=              1.3259
   XY=             -0.0000   XZ=             -0.0000   YZ=             -0.0000
 Octapole moment (field-independent basis, Debye-Ang**2):
  XXX=            -19.8071  YYY=             -0.0000  ZZZ=             -0.0000  XYY=             -4.6068
  XXY=             -0.0000  XXZ=             -0.0000  XZZ=             -4.6068  YZZ=             -0.0000
  YYZ=             -0.0000  XYZ=             -0.0000
 Hexadecapole moment (field-independent basis, Debye-Ang**3):
 XXXX=           -236.7935 YYYY=             -5.8938 ZZZZ=             -5.8938 XXXY=             -0.0000
 XXXZ=             -0.0000 YYYX=             -0.0000 YYYZ=              0.0000 ZZZX=             -0.0000
 ZZZY=              0.0000 XXYY=            -40.4464 XXZZ=            -40.4464 YYZZ=             -1.9646
 XXYZ=             -0.0000 YYXZ=             -0.0000 ZZXY=             -0.0000
 N-N= 3.481429019211D+00 E-N=-2.485317356003D+02  KE= 1.003746996355D+02
  Exact polarizability:      24.840      -0.000       2.036      -0.000      -0.000       2.036
 Approx polarizability:      73.197      -0.000       1.942      -0.000      -0.000       1.942
                          Isotropic Fermi Contact Couplings
        Atom                 a.u.       MegaHertz       Gauss      10(-4) cm-1
     1  H(1)               0.00080       3.57350       1.27511       1.19199
     2  H(1)               0.29660    1325.76467     473.06580     442.22749
     3  F(19)              0.00014       0.57501       0.20518       0.19180
 --------------------------------------------------------
       Center         ----  Spin Dipole Couplings  ----
                      3XX-RR        3YY-RR        3ZZ-RR
 --------------------------------------------------------
     1   Atom        0.005407     -0.002704     -0.002704
     2   Atom        0.000065     -0.000032     -0.000032
     3   Atom       -0.004631      0.002315      0.002315
 --------------------------------------------------------
                        XY            XZ            YZ
 --------------------------------------------------------
     1   Atom       -0.000000     -0.000000      0.000000
     2   Atom       -0.000000     -0.000000      0.000000
     3   Atom       -0.000000     -0.000000     -0.000000
 --------------------------------------------------------


 ---------------------------------------------------------------------------------
              Anisotropic Spin Dipole Couplings in Principal Axis System
 ---------------------------------------------------------------------------------

       Atom             a.u.   MegaHertz   Gauss  10(-4) cm-1        Axes

              Baa    -0.0027    -1.442    -0.515    -0.481 -0.0000 -0.5828  0.8126
     1 H(1)   Bbb    -0.0027    -1.442    -0.515    -0.481  0.0000  0.8126  0.5828
              Bcc     0.0054     2.885     1.029     0.962  1.0000 -0.0000 -0.0000
 
              Baa    -0.0000    -0.017    -0.006    -0.006 -0.0000 -0.5840  0.8117
     2 H(1)   Bbb    -0.0000    -0.017    -0.006    -0.006  0.0000  0.8117  0.5840
              Bcc     0.0001     0.035     0.012     0.012  1.0000 -0.0000 -0.0000
 
              Baa    -0.0046    -2.326    -0.830    -0.776  1.0000  0.0000  0.0000
     3 F(19)  Bbb     0.0023     1.163     0.415     0.388 -0.0000  0.8194  0.5732
              Bcc     0.0023     1.163     0.415     0.388 -0.0000 -0.5732  0.8194
 

 ---------------------------------------------------------------------------------

 Calling FoFJK, ICntrl=    100127 FMM=F ISym2X=0 I1Cent= 0 IOpClX= 1 NMat=1 NMatS=1 NMatT=0.
 Full mass-weighted force constant matrix:
 Low frequencies ----1122.8493  -73.5175    0.0016    0.0021    0.0022   22.0882
 Low frequencies ---   22.0882  777.6352  777.6352
 ******    2 imaginary frequencies (negative Signs) ****** 
 Diagonal vibrational polarizability:
        2.0450157       4.4611514       4.4611514
 Harmonic frequencies (cm**-1), IR intensities (KM/Mole), Raman scattering
 activities (A**4/AMU), depolarization ratios for plane and unpolarized
 incident light, reduced masses (AMU), force constants (mDyne/A),
 and normal coordinates:
                      1                      2                      3
                      A                      A                      A
 Frequencies --  -1122.8493               -73.5175               736.7906
 Red. masses --      1.0577                 1.0539                 1.0281
 Frc consts  --      0.7857                 0.0034                 0.3288
 IR Inten    --     30.8586                 0.2784                89.9916
  Atom  AN      X      Y      Z        X      Y      Z        X      Y      Z
     1   1     1.00   0.00   0.00    -0.04  -0.00  -0.00    -0.00   0.80   0.52
     2   1    -0.01  -0.00  -0.00     1.00   0.00   0.00     0.00  -0.27  -0.17
     3   9    -0.05  -0.00  -0.00    -0.05   0.00   0.00     0.00  -0.03  -0.02
                      4
                      A
 Frequencies --    736.7906
 Red. masses --      1.0281
 Frc consts  --      0.3288
 IR Inten    --     89.9916
  Atom  AN      X      Y      Z
     1   1    -0.00  -0.52   0.80
     2   1     0.00   0.17  -0.27
     3   9    -0.00   0.02  -0.03

 -------------------
 - Thermochemistry -
 -------------------
 Temperature   298.150 Kelvin.  Pressure   1.00000 Atm.
 Atom     1 has atomic number  1 and mass   1.00783
 Atom     2 has atomic number  1 and mass   1.00783
 Atom     3 has atomic number  9 and mass  18.99840
 Molecular mass:    21.01405 amu.
 Principal axes and moments of inertia in atomic units:
                           1         2         3
     Eigenvalues --     0.00000 119.95443 119.95443
           X            1.00000  -0.00000   0.00000
           Y            0.00000   1.00000   0.00000
           Z            0.00000   0.00000   1.00000
 This molecule is a prolate symmetric top.
 Rotational symmetry number  1.
 Rotational temperature (Kelvin)      0.72206
 Rotational constant (GHZ):          15.045223
    2 imaginary frequencies ignored.
 Zero-point vibrational energy       8814.0 (Joules/Mol)
                                    2.10659 (Kcal/Mol)
 Vibrational temperatures:   1060.08  1060.08
          (Kelvin)
 
 Zero-point correction=                           0.003357 (Hartree/Particle)
 Thermal correction to Energy=                    0.005915
 Thermal correction to Enthalpy=                  0.006859
 Thermal correction to Gibbs Free Energy=        -0.017341
 Sum of electronic and zero-point Energies=           -100.778031
 Sum of electronic and thermal Energies=              -100.775473
 Sum of electronic and thermal Enthalpies=            -100.774529
 Sum of electronic and thermal Free Energies=         -100.798729
 
                     E (Thermal)             CV                S
                      KCal/Mol        Cal/Mol-Kelvin    Cal/Mol-Kelvin
 Total                    3.712              6.489             50.933
 Electronic               0.000              0.000              1.377
 Translational            0.889              2.981             35.068
 Rotational               0.592              1.987             13.957
 Vibrational              2.230              1.521              0.531
                       Q            Log10(Q)             Ln(Q)
 Total Bot       0.946552D+08          7.976145         18.365752
 Total V=0       0.331349D+10          9.520286         21.921269
 Vib (Bot)       0.302714D-01         -1.518967         -3.497552
 Vib (V=0)       0.105968D+01          0.025174          0.057965
 Electronic      0.200000D+01          0.301030          0.693147
 Translational   0.378633D+07          6.578219         15.146908
 Rotational      0.412918D+03          2.615863          6.023248
 -------------------------------------------------------------------
 Center     Atomic                   Forces (Hartrees/Bohr)
 Number     Number              X              Y              Z
 -------------------------------------------------------------------
      1        1           0.078438677    0.000000000    0.000000000
      2        1           0.000125583    0.000000000    0.000000000
      3        9          -0.078564260   -0.000000000   -0.000000000
 -------------------------------------------------------------------
 Cartesian Forces:  Max     0.078564260 RMS     0.037005982

 GradGradGradGradGradGradGradGradGradGradGradGradGradGradGradGradGradGrad
 Berny optimization.
 Search for a local minimum.
 Step number   1 out of a maximum of    2
 All quantities printed in internal units (Hartrees-Bohrs-Radians)
 Second derivative matrix not updated -- analytic derivatives used.
 The second derivative matrix:
                          X1        Y1        Z1        X2        Y2
           X1          -0.04569
           Y1          -0.00000   0.02190
           Z1          -0.00000  -0.00000   0.02190
           X2           0.00029   0.00000   0.00000  -0.00020
           Y2           0.00000  -0.00002  -0.00000   0.00000   0.00002
           Z2           0.00000  -0.00000  -0.00002   0.00000   0.00000
           X3           0.04540   0.00000   0.00000  -0.00009  -0.00000
           Y3           0.00000  -0.02189   0.00000  -0.00000   0.00000
           Z3           0.00000   0.00000  -0.02189  -0.00000   0.00000
                          Z2        X3        Y3        Z3
           Z2           0.00002
           X3          -0.00000  -0.04531
           Y3           0.00000  -0.00000   0.02188
           Z3           0.00000  -0.00000  -0.00000   0.02188
 ITU=  0
     Eigenvalues ---   -0.07445  -0.00027   0.02820   0.02820
 Eigenvalue     1 is  -7.45D-02 should be greater than     0.000000 Eigenvector:
                          X1        X3        X2        Y1        Z1
   1                    0.92487  -0.35432   0.13809   0.00000   0.00000
                          Y2        Y3        Z2        Z3
   1                   -0.00000  -0.00000  -0.00000  -0.00000
 Eigenvalue     2 is  -2.74D-04 should be greater than     0.000000 Eigenvector:
                          X2        X3        X1        Z1        Y1
   1                    0.94341  -0.23722  -0.23174  -0.00000  -0.00000
                          Z2        Z3        Y2        Y3
   1                    0.00000   0.00000   0.00000   0.00000
 Quadratic step=2.507D+00 exceeds max=3.000D-01 adjusted using Lamda=-2.602D-01.
 Angle between NR and scaled steps=  57.04 degrees.
 Angle between quadratic step and forces=  25.26 degrees.
 Linear search not attempted -- first point.
 B after Tr=    -0.071220   -0.000000    0.000000
         Rot=    0.815183    0.579203    0.000000    0.000000 Ang=  70.79 deg.
 Variable       Old X    -DE/DX   Delta X   Delta X   Delta X     New X
                                 (Linear)    (Quad)   (Total)
    X1        0.00000   0.07844   0.00000   0.27696   0.20574   0.20574
    Y1        0.00000   0.00000   0.00000   0.00000   0.00000   0.00000
    Z1        0.00000   0.00000   0.00000   0.00000  -0.00000  -0.00000
    X2       -7.18096   0.00013   0.00000   0.04352  -0.02770  -7.20865
    Y2        0.00000   0.00000   0.00000  -0.00000  -0.00000  -0.00000
    Z2        0.00000   0.00000   0.00000  -0.00000   0.00000   0.00000
    X3        3.59048  -0.07856   0.00000  -0.10683  -0.17805   3.41243
    Y3        0.00000  -0.00000   0.00000  -0.00000  -0.00000  -0.00000
    Z3        0.00000  -0.00000   0.00000  -0.00000   0.00000   0.00000
         Item               Value     Threshold  Converged?
 Maximum Force            0.078564     0.000450     NO 
 RMS     Force            0.037006     0.000300     NO 
 Maximum Displacement     0.205744     0.001800     NO 
 RMS     Displacement     0.091165     0.001200     NO 
 Predicted change in Energy=-3.347379D-02
 GradGradGradGradGradGradGradGradGradGradGradGradGradGradGradGradGradGrad


 ----------------------------------------------------------------------

 Electric dipole moment (input orientation):
 (Debye = 10**-18 statcoulomb cm , SI units = C m)
                  (au)            (Debye)         (10**-30 SI)
   Tot        0.114974D+01      0.292235D+01      0.974790D+01
   x         -0.114974D+01     -0.292235D+01     -0.974790D+01
   y          0.000000D+00      0.000000D+00      0.000000D+00
   z          0.000000D+00      0.000000D+00      0.000000D+00

 Dipole polarizability, Alpha (input orientation).
 (esu units = cm**3 , SI units = C**2 m**2 J**-1)
 Alpha(0;0):
               (au)            (10**-24 esu)      (10**-40 SI)
   iso        0.963736D+01      0.142811D+01      0.158899D+01
   aniso      0.228036D+02      0.337915D+01      0.375981D+01
   xx         0.248398D+02      0.368088D+01      0.409553D+01
   yx         0.000000D+00      0.000000D+00      0.000000D+00
   yy         0.203615D+01      0.301727D+00      0.335716D+00
   zx         0.000000D+00      0.000000D+00      0.000000D+00
   zy         0.000000D+00      0.000000D+00      0.000000D+00
   zz         0.203615D+01      0.301727D+00      0.335716D+00

 ----------------------------------------------------------------------

 Dipole orientation:
     1          0.00000000          0.00000000         -0.00000000
     1          0.00000000          0.00000000          7.18095927
     9         -0.00000000         -0.00000000         -3.59047964

 Electric dipole moment (dipole orientation):
 (Debye = 10**-18 statcoulomb cm , SI units = C m)
                  (au)            (Debye)         (10**-30 SI)
   Tot        0.114974D+01      0.292235D+01      0.974790D+01
   x          0.000000D+00      0.000000D+00      0.000000D+00
   y          0.000000D+00      0.000000D+00      0.000000D+00
   z          0.114974D+01      0.292235D+01      0.974790D+01

 Dipole polarizability, Alpha (dipole orientation).
 (esu units = cm**3 , SI units = C**2 m**2 J**-1)
 Alpha(0;0):
               (au)            (10**-24 esu)      (10**-40 SI)
   iso        0.963736D+01      0.142811D+01      0.158899D+01
   aniso      0.228036D+02      0.337915D+01      0.375981D+01
   xx         0.203615D+01      0.301727D+00      0.335716D+00
   yx         0.000000D+00      0.000000D+00      0.000000D+00
   yy         0.203615D+01      0.301727D+00      0.335716D+00
   zx         0.000000D+00      0.000000D+00      0.000000D+00
   zy         0.000000D+00      0.000000D+00      0.000000D+00
   zz         0.248398D+02      0.368088D+01      0.409553D+01

 ----------------------------------------------------------------------
 Unable to Open any file for archive entry.
 1\1\GINC-DESKTOP-B3RIHJD\Freq\UB3LYP\6-311G(d,p)\F1H2(2)\GARYX\22-Aug-
 2025\0\\# sp b3lyp/6-311g** Force nosymm scf=(qc)\\Title Card Required
 \\0,2\H,0.,0.,0.\H,-3.8,0.,0.\F,1.9,0.,0.\\Version=ES64L-G16RevC.01\HF
 =-100.781388\S2=0.750005\S2-1=0.\S2A=0.75\RMSD=5.397e-10\RMSF=3.701e-0
 2\ZeroPoint=0.0033571\Thermal=0.005915\ETot=-100.7754731\HTot=-100.774
 5289\GTot=-100.7987287\Dipole=-1.1497401,0.,0.\DipoleDeriv=0.1748362,0
 .,0.,0.,0.3143684,0.,0.,0.,0.3143684,-0.0176174,0.,0.,0.,0.0019508,0.,
 0.,0.,0.0019508,-0.1572189,0.,0.,0.,-0.3163192,0.,0.,0.,-0.3163192\Pol
 ar=24.839776,0.,2.0361543,0.,0.,2.0361543\Quadrupole=-1.971573,0.98578
 65,0.9857865,0.,0.,0.\PG=C*V [C*(H1H1F1)]\NImag=2\\-0.04569053,0.,0.02
 190361,0.,0.,0.02190361,0.00028781,0.,0.,-0.00019795,0.,-0.00001833,0.
 ,0.,0.00001773,0.,0.,-0.00001833,0.,0.,0.00001773,0.04540272,0.,0.,-0.
 00008986,0.,0.,-0.04531286,0.,-0.02188528,0.,0.,0.00000060,0.,0.,0.021
 88467,0.,0.,-0.02188528,0.,0.,0.00000060,0.,0.,0.02188467\\-0.07843868
 ,0.,0.,-0.00012558,0.,0.,0.07856426,0.,0.\\\@
 The archive entry for this job was punched.


 HIGGLEDY-PIGGLEDY
 NIC'LAUS COPERNICUS
 LOOKED AT THE UNIVERSE,
 SPOKE TO THE THRONG;
 GIVE UP YOUR PTOLOMY,
 RISE UP AND FOLLOW ME,
 HELIOCENTRICALLY
 PTOLEMY'S WRONG.
   -- NANCY L. STARK
 Job cpu time:       0 days  0 hours  0 minutes 16.7 seconds.
 Elapsed time:       0 days  0 hours  0 minutes  2.3 seconds.
 File lengths (MBytes):  RWF=      6 Int=      0 D2E=      0 Chk=      1 Scr=      1
 Normal termination of Gaussian 16 at Fri Aug 22 16:51:32 2025.
