 Entering Gaussian System, Link 0=g16
 Initial command:
 /home/garyx/gaussian/g16/l1.exe "/tmp/gaussian_scratch/Gau-431415.inp" -scrdir="/tmp/gaussian_scratch/"
 Entering Link 1 = /home/garyx/gaussian/g16/l1.exe PID=    431417.
  
 Copyright (c) 1988-2019, Gaussian, Inc.  All Rights Reserved.
  
 This is part of the Gaussian(R) 16 program.  It is based on
 the Gaussian(R) 09 system (copyright 2009, Gaussian, Inc.),
 the Gaussian(R) 03 system (copyright 2003, Gaussian, Inc.),
 the Gaussian(R) 98 system (copyright 1998, Gaussian, Inc.),
 the Gaussian(R) 94 system (copyright 1995, Gaussian, Inc.),
 the Gaussian 92(TM) system (copyright 1992, Gaussian, Inc.),
 the Gaussian 90(TM) system (copyright 1990, Gaussian, Inc.),
 the Gaussian 88(TM) system (copyright 1988, Gaussian, Inc.),
 the Gaussian 86(TM) system (copyright 1986, Carnegie Mellon
 University), and the Gaussian 82(TM) system (copyright 1983,
 Carnegie Mellon University). Gaussian is a federally registered
 trademark of Gaussian, Inc.
  
 This software contains proprietary and confidential information,
 including trade secrets, belonging to Gaussian, Inc.
  
 This software is provided under written license and may be
 used, copied, transmitted, or stored only in accord with that
 written license.
  
 The following legend is applicable only to US Government
 contracts under FAR:
  
                    RESTRICTED RIGHTS LEGEND
  
 Use, reproduction and disclosure by the US Government is
 subject to restrictions as set forth in subparagraphs (a)
 and (c) of the Commercial Computer Software - Restricted
 Rights clause in FAR 52.227-19.
  
 Gaussian, Inc.
 340 Quinnipiac St., Bldg. 40, Wallingford CT 06492
  
  
 ---------------------------------------------------------------
 Warning -- This program may not be used in any manner that
 competes with the business of Gaussian, Inc. or will provide
 assistance to any competitor of Gaussian, Inc.  The licensee
 of this program is prohibited from giving any competitor of
 Gaussian, Inc. access to this program.  By using this program,
 the user acknowledges that Gaussian, Inc. is engaged in the
 business of creating and licensing software in the field of
 computational chemistry and represents and warrants to the
 licensee that it is not a competitor of Gaussian, Inc. and that
 it will not use this program in any manner prohibited above.
 ---------------------------------------------------------------
  

 Cite this work as:
 Gaussian 16, Revision C.01,
 M. J. Frisch, G. W. Trucks, H. B. Schlegel, G. E. Scuseria, 
 M. A. Robb, J. R. Cheeseman, G. Scalmani, V. Barone, 
 G. A. Petersson, H. Nakatsuji, X. Li, M. Caricato, A. V. Marenich, 
 J. Bloino, B. G. Janesko, R. Gomperts, B. Mennucci, H. P. Hratchian, 
 J. V. Ortiz, A. F. Izmaylov, J. L. Sonnenberg, D. Williams-Young, 
 F. Ding, F. Lipparini, F. Egidi, J. Goings, B. Peng, A. Petrone, 
 T. Henderson, D. Ranasinghe, V. G. Zakrzewski, J. Gao, N. Rega, 
 G. Zheng, W. Liang, M. Hada, M. Ehara, K. Toyota, R. Fukuda, 
 J. Hasegawa, M. Ishida, T. Nakajima, Y. Honda, O. Kitao, H. Nakai, 
 T. Vreven, K. Throssell, J. A. Montgomery, Jr., J. E. Peralta, 
 F. Ogliaro, M. J. Bearpark, J. J. Heyd, E. N. Brothers, K. N. Kudin, 
 V. N. Staroverov, T. A. Keith, R. Kobayashi, J. Normand, 
 K. Raghavachari, A. P. Rendell, J. C. Burant, S. S. Iyengar, 
 J. Tomasi, M. Cossi, J. M. Millam, M. Klene, C. Adamo, R. Cammi, 
 J. W. Ochterski, R. L. Martin, K. Morokuma, O. Farkas, 
 J. B. Foresman, and D. J. Fox, Gaussian, Inc., Wallingford CT, 2019.
 
 ******************************************
 Gaussian 16:  ES64L-G16RevC.01  3-Jul-2019
                22-Aug-2025 
 ******************************************
 %mem=10GB
 %nprocs=8
 Will use up to    8 processors via shared memory.
 -----------------------------------------
 # sp b3lyp/6-311g** Force nosymm scf=(qc)
 -----------------------------------------
 1/10=4,30=1,38=1/1,3;
 2/12=2,15=1,17=6,18=5,40=1/2;
 3/5=4,6=6,7=101,11=2,25=1,30=1,71=2,74=-5,140=1/1,2,3;
 4//1;
 5/5=2,8=3,38=5,98=1/8;
 8/6=4,10=90,11=11/1;
 11/6=1,8=1,9=11,15=111,16=1,31=1/1,2,10;
 10/6=1,31=1/2;
 6/7=2,8=2,9=2,10=2,28=1/1;
 7/8=1,10=1,25=1,30=1/1,2,3,16;
 1/10=4,30=1/3;
 99//99;
 -------------------
 Title Card Required
 -------------------
 Symbolic Z-matrix:
 Charge =  0 Multiplicity = 2
 H                     0.        0.        0. 
 H                    -1.95      0.        0. 
 F                     1.9       0.        0. 
 

 GradGradGradGradGradGradGradGradGradGradGradGradGradGradGradGradGradGrad
 Berny optimization.
 Initialization pass.
 Trust Radius=3.00D-01 FncErr=1.00D-07 GrdErr=1.00D-07 EigMax=2.50D+02 EigMin=1.00D-04
 Number of steps in this run=      2 maximum allowed number of steps=      2.
 GradGradGradGradGradGradGradGradGradGradGradGradGradGradGradGradGradGrad

                          Input orientation:                          
 ---------------------------------------------------------------------
 Center     Atomic      Atomic             Coordinates (Angstroms)
 Number     Number       Type             X           Y           Z
 ---------------------------------------------------------------------
      1          1           0        0.000000    0.000000    0.000000
      2          1           0       -1.950000    0.000000    0.000000
      3          9           0        1.900000    0.000000    0.000000
 ---------------------------------------------------------------------
                    Distance matrix (angstroms):
                    1          2          3
     1  H    0.000000
     2  H    1.950000   0.000000
     3  F    1.900000   3.850000   0.000000
 Symmetry turned off by external request.
 Stoichiometry    FH2(2)
 Framework group  C*V[C*(HHF)]
 Deg. of freedom     2
 Full point group                 C*V     NOp   4
 Rotational constants (GHZ):           0.0000000          29.7655350          29.7655350
 Standard basis: 6-311G(d,p) (5D, 7F)
    30 basis functions,    48 primitive gaussians,    31 cartesian basis functions
     6 alpha electrons        5 beta electrons
       nuclear repulsion energy         4.0150394584 Hartrees.
 NAtoms=    3 NActive=    3 NUniq=    3 SFac= 1.00D+00 NAtFMM=   60 NAOKFM=F Big=F
 Integral buffers will be    131072 words long.
 Raffenetti 2 integral format.
 Two-electron integral symmetry is turned off.
 One-electron integrals computed using PRISM.
 NBasis=    30 RedAO= T EigKep=  7.53D-02  NBF=    30
 NBsUse=    30 1.00D-06 EigRej= -1.00D+00 NBFU=    30
 ExpMin= 1.03D-01 ExpMax= 1.14D+04 ExpMxC= 1.72D+03 IAcc=3 IRadAn=         5 AccDes= 0.00D+00
 Harris functional with IExCor=  402 and IRadAn=       5 diagonalized for initial guess.
 HarFok:  IExCor=  402 AccDes= 0.00D+00 IRadAn=         5 IDoV= 1 UseB2=F ITyADJ=14
 ICtDFT=  3500011 ScaDFX=  1.000000  1.000000  1.000000  1.000000
 FoFCou: FMM=F IPFlag=           0 FMFlag=      100000 FMFlg1=           0
         NFxFlg=           0 DoJE=T BraDBF=F KetDBF=T FulRan=T
         wScrn=  0.000000 ICntrl=       500 IOpCl=  0 I1Cent=   200000004 NGrid=           0
         NMat0=    1 NMatS0=      1 NMatT0=    0 NMatD0=    1 NMtDS0=    0 NMtDT0=    0
 Symmetry not used in FoFCou.
 Initial guess <Sx>= 0.0000 <Sy>= 0.0000 <Sz>= 0.5000 <S**2>= 0.7500 S= 0.5000
 Keep R1 and R2 ints in memory in canonical form, NReq=7127049.
 Gradient too large for Newton-Raphson -- use scaled steepest descent instead.
  Beta Gap=    -0.358 HL deriv= 1.41D-16 Rot set to   2.93D-01
     Minimum is close to point  3 DX=  3.53D-02 DF= -8.40D-04 DXR=  8.11D-02 DFR=  6.99D-03 which will be used.
 Gradient too large for Newton-Raphson -- use scaled steepest descent instead.
 Gradient too large for Newton-Raphson -- use scaled steepest descent instead.
     Accept linear search using points  3 and  4.
 Gradient too large for Newton-Raphson -- use scaled steepest descent instead.
 Gradient too large for Newton-Raphson -- use scaled steepest descent instead.
     Accept linear search using points  1 and  2.
 Gradient too large for Newton-Raphson -- use scaled steepest descent instead.
     Accept linear search using points  2 and  3.
 Gradient too large for Newton-Raphson -- use scaled steepest descent instead.
     Accept linear search using points  1 and  2.
 Gradient too large for Newton-Raphson -- use scaled steepest descent instead.
     Accept linear search using points  3 and  4.
 Gradient too large for Newton-Raphson -- use scaled steepest descent instead.
     Minimum is close to point  3 DX= -2.79D-02 DF= -1.06D-06 DXR=  7.50D-02 DFR=  5.65D-03 which will be used.
 LinEq1:  Iter=  0 NonCon=     1 RMS=8.33D-04 Max=1.08D-02 NDo=     1
 AX will form     1 AO Fock derivatives at one time.
 LinEq1:  Iter=  1 NonCon=     1 RMS=8.72D-04 Max=9.19D-03 NDo=     1
 LinEq1:  Iter=  2 NonCon=     1 RMS=3.20D-04 Max=3.45D-03 NDo=     1
 LinEq1:  Iter=  3 NonCon=     1 RMS=5.63D-05 Max=4.11D-04 NDo=     1
 LinEq1:  Iter=  4 NonCon=     1 RMS=1.51D-05 Max=1.47D-04 NDo=     1
 LinEq1:  Iter=  5 NonCon=     1 RMS=3.48D-06 Max=4.24D-05 NDo=     1
 LinEq1:  Iter=  6 NonCon=     1 RMS=7.32D-07 Max=5.66D-06 NDo=     1
 LinEq1:  Iter=  7 NonCon=     1 RMS=1.02D-07 Max=8.97D-07 NDo=     1
 LinEq1:  Iter=  8 NonCon=     1 RMS=1.85D-08 Max=1.54D-07 NDo=     1
 LinEq1:  Iter=  9 NonCon=     1 RMS=2.80D-09 Max=2.39D-08 NDo=     1
 LinEq1:  Iter= 10 NonCon=     0 RMS=1.78D-10 Max=8.55D-10 NDo=     1
 Linear equations converged to 1.640D-09 1.640D-08 after    10 iterations.
     Accept linear search using points  1 and  2.
     Minimum is close to point  2 DX= -5.54D-02 DF= -4.05D-07 DXR=  5.87D-02 DFR=  3.60D-03 which will be used.
 LinEq1:  Iter=  0 NonCon=     1 RMS=9.22D-05 Max=1.25D-03 NDo=     1
 LinEq1:  Iter=  1 NonCon=     1 RMS=8.52D-05 Max=8.62D-04 NDo=     1
 LinEq1:  Iter=  2 NonCon=     1 RMS=3.05D-05 Max=2.62D-04 NDo=     1
 LinEq1:  Iter=  3 NonCon=     1 RMS=1.29D-05 Max=1.18D-04 NDo=     1
 LinEq1:  Iter=  4 NonCon=     1 RMS=4.26D-06 Max=3.17D-05 NDo=     1
 LinEq1:  Iter=  5 NonCon=     1 RMS=4.88D-07 Max=3.37D-06 NDo=     1
 LinEq1:  Iter=  6 NonCon=     1 RMS=1.05D-07 Max=9.19D-07 NDo=     1
 LinEq1:  Iter=  7 NonCon=     1 RMS=2.68D-08 Max=1.97D-07 NDo=     1
 LinEq1:  Iter=  8 NonCon=     1 RMS=3.40D-09 Max=2.50D-08 NDo=     1
 LinEq1:  Iter=  9 NonCon=     0 RMS=4.69D-10 Max=2.15D-09 NDo=     1
 Linear equations converged to 1.640D-09 1.640D-08 after     9 iterations.
     Minimum is close to point  2 DX=  5.66D-03 DF= -1.68D-11 DXR=  5.63D-03 DFR=  3.17D-05 which will be used.
 LinEq1:  Iter=  0 NonCon=     1 RMS=2.78D-07 Max=3.04D-06 NDo=     1
 LinEq1:  Iter=  1 NonCon=     1 RMS=2.97D-07 Max=3.28D-06 NDo=     1
 LinEq1:  Iter=  2 NonCon=     1 RMS=1.60D-07 Max=1.71D-06 NDo=     1
 LinEq1:  Iter=  3 NonCon=     1 RMS=3.22D-08 Max=3.19D-07 NDo=     1
 LinEq1:  Iter=  4 NonCon=     1 RMS=1.01D-08 Max=1.06D-07 NDo=     1
 LinEq1:  Iter=  5 NonCon=     1 RMS=1.71D-09 Max=1.38D-08 NDo=     1
 LinEq1:  Iter=  6 NonCon=     1 RMS=3.95D-10 Max=2.32D-09 NDo=     1
 LinEq1:  Iter=  7 NonCon=     1 RMS=5.88D-11 Max=4.13D-10 NDo=     1
 LinEq1:  Iter=  8 NonCon=     0 RMS=9.31D-12 Max=5.87D-11 NDo=     1
 Linear equations converged to 1.729D-11 1.729D-10 after     8 iterations.
 SCF Done:  E(UB3LYP) =  -100.809060950     a.u. after   13 cycles
            Convg  =    0.2474D-08                    59 Fock formations.
              S**2 =  1.1194                  -V/T =  2.0035
 <Sx>= 0.0000 <Sy>= 0.0000 <Sz>= 0.5000 <S**2>= 1.1194 S= 0.6702
 <L.S>=  0.00000000000    
 Annihilation of the first spin contaminant:
 S**2 before annihilation     1.1194,   after     0.7504
 DoSCS=F DFT=T ScalE2(SS,OS)=  1.000000  1.000000
 Range of M.O.s used for correlation:     1    30
 NBasis=    30 NAE=     6 NBE=     5 NFC=     0 NFV=     0
 NROrb=     30 NOA=     6 NOB=     5 NVA=    24 NVB=    25
 Symmetrizing basis deriv contribution to polar:
 IMax=3 JMax=2 DiffMx= 0.00D+00
 G2DrvN: will do     4 centers at a time, making    1 passes.
 Calling FoFCou, ICntrl=  3107 FMM=F I1Cent=   0 AccDes= 0.00D+00.
 End of G2Drv F.D. properties file   721 does not exist.
 End of G2Drv F.D. properties file   722 does not exist.
 End of G2Drv F.D. properties file   788 does not exist.
          IDoAtm=111
          Differentiating once with respect to electric field.
                with respect to dipole field.
          Differentiating once with respect to nuclear coordinates.
 Keep R1 and R2 ints in memory in canonical form, NReq=7101519.
          There are    12 degrees of freedom in the 1st order CPHF.  IDoFFX=6 NUNeed=     3.
      9 vectors produced by pass  0 Test12= 2.24D-15 8.33D-09 XBig12= 1.57D+02 1.12D+01.
 AX will form     9 AO Fock derivatives at one time.
      9 vectors produced by pass  1 Test12= 2.24D-15 8.33D-09 XBig12= 3.91D+01 4.08D+00.
      9 vectors produced by pass  2 Test12= 2.24D-15 8.33D-09 XBig12= 2.80D+00 8.33D-01.
      9 vectors produced by pass  3 Test12= 2.24D-15 8.33D-09 XBig12= 1.27D-02 6.53D-02.
      7 vectors produced by pass  4 Test12= 2.24D-15 8.33D-09 XBig12= 4.97D-05 2.27D-03.
      5 vectors produced by pass  5 Test12= 2.24D-15 8.33D-09 XBig12= 2.05D-07 1.39D-04.
      4 vectors produced by pass  6 Test12= 2.24D-15 8.33D-09 XBig12= 6.89D-10 1.22D-05.
      1 vectors produced by pass  7 Test12= 2.24D-15 8.33D-09 XBig12= 5.57D-13 2.25D-07.
 InvSVY:  IOpt=1 It=  1 EMax= 6.66D-16
 Solved reduced A of dimension    53 with     9 vectors.
 Isotropic polarizability for W=    0.000000       17.25 Bohr**3.
 End of Minotr F.D. properties file   721 does not exist.
 End of Minotr F.D. properties file   722 does not exist.
 End of Minotr F.D. properties file   788 does not exist.

 **********************************************************************

            Population analysis using the SCF Density.

 **********************************************************************

 Alpha  occ. eigenvalues --  -24.67302  -1.13634  -0.46441  -0.38955  -0.38955
 Alpha  occ. eigenvalues --   -0.36922
 Alpha virt. eigenvalues --   -0.13351   0.23599   0.30254   0.88792   0.95013
 Alpha virt. eigenvalues --    0.95013   1.04606   1.20912   1.20912   1.29071
 Alpha virt. eigenvalues --    1.33926   1.33926   1.65149   2.11373   2.31316
 Alpha virt. eigenvalues --    3.76368   3.76368   3.77304   3.81840   3.81840
 Alpha virt. eigenvalues --    6.01677   6.01677   6.05424  66.57804
  Beta  occ. eigenvalues --  -24.65076  -1.07445  -0.37973  -0.36769  -0.36769
  Beta virt. eigenvalues --   -0.21073  -0.11245   0.25845   0.31358   0.91232
  Beta virt. eigenvalues --    0.95493   0.95493   1.08219   1.23749   1.23749
  Beta virt. eigenvalues --    1.35824   1.35824   1.39304   1.62963   2.12561
  Beta virt. eigenvalues --    2.35322   3.82984   3.82984   3.83258   3.83258
  Beta virt. eigenvalues --    3.86534   6.03552   6.03552   6.15131  66.59998
          Condensed to atoms (all electrons):
               1          2          3
     1  H    0.706506   0.066010   0.062335
     2  H    0.066010   0.884783  -0.000561
     3  F    0.062335  -0.000561   9.153142
          Atomic-Atomic Spin Densities.
               1          2          3
     1  H   -0.573339   0.021034  -0.022071
     2  H    0.021034   0.855210  -0.001019
     3  F   -0.022071  -0.001019   0.722241
 Mulliken charges and spin densities:
               1          2
     1  H    0.165149  -0.574376
     2  H    0.049767   0.875225
     3  F   -0.214916   0.699151
 Sum of Mulliken charges =  -0.00000   1.00000
 Mulliken charges and spin densities with hydrogens summed into heavy atoms:
               1          2
     3  F   -0.000000   1.000000
 APT charges:
               1
     1  H   -0.023837
     2  H    0.034473
     3  F   -0.010635
 Sum of APT charges =  -0.00000
 APT charges with hydrogens summed into heavy atoms:
               1
     3  F   -0.000000
 Electronic spatial extent (au):  <R**2>=            147.2554
 Charge=             -0.0000 electrons
 Dipole moment (field-independent basis, Debye):
    X=             -2.4804    Y=             -0.0000    Z=              0.0000  Tot=              2.4804
 Quadrupole moment (field-independent basis, Debye-Ang):
   XX=             -8.7129   YY=             -7.5151   ZZ=             -7.5151
   XY=             -0.0000   XZ=              0.0000   YZ=              0.0000
 Traceless Quadrupole moment (field-independent basis, Debye-Ang):
   XX=             -0.7985   YY=              0.3993   ZZ=              0.3993
   XY=             -0.0000   XZ=              0.0000   YZ=              0.0000
 Octapole moment (field-independent basis, Debye-Ang**2):
  XXX=            -27.1743  YYY=              0.0000  ZZZ=              0.0000  XYY=             -7.1164
  XXY=             -0.0000  XXZ=              0.0000  XZZ=             -7.1164  YZZ=              0.0000
  YYZ=              0.0000  XYZ=              0.0000
 Hexadecapole moment (field-independent basis, Debye-Ang**3):
 XXXX=           -132.4162 YYYY=             -5.9807 ZZZZ=             -5.9807 XXXY=             -0.0000
 XXXZ=              0.0000 YYYX=              0.0000 YYYZ=             -0.0000 ZZZX=             -0.0000
 ZZZY=             -0.0000 XXYY=            -24.8679 XXZZ=            -24.8679 YYZZ=             -1.9936
 XXYZ=              0.0000 YYXZ=             -0.0000 ZZXY=              0.0000
 N-N= 4.015039458425D+00 E-N=-2.494668537643D+02  KE= 1.004584509132D+02
  Exact polarizability:      47.568      -0.000       2.087       0.000       0.000       2.087
 Approx polarizability:      59.282      -0.000       1.995       0.000       0.000       1.995
                          Isotropic Fermi Contact Couplings
        Atom                 a.u.       MegaHertz       Gauss      10(-4) cm-1
     1  H(1)              -0.18342    -819.87200    -292.55072    -273.47986
     2  H(1)               0.26266    1174.03950     418.92649     391.61742
     3  F(19)             -0.03108    -130.77512     -46.66382     -43.62189
 --------------------------------------------------------
       Center         ----  Spin Dipole Couplings  ----
                      3XX-RR        3YY-RR        3ZZ-RR
 --------------------------------------------------------
     1   Atom        0.068018     -0.034009     -0.034009
     2   Atom       -0.015369      0.007684      0.007684
     3   Atom        4.509203     -2.254602     -2.254602
 --------------------------------------------------------
                        XY            XZ            YZ
 --------------------------------------------------------
     1   Atom        0.000000     -0.000000      0.000000
     2   Atom        0.000000      0.000000     -0.000000
     3   Atom       -0.000000      0.000000     -0.000000
 --------------------------------------------------------


 ---------------------------------------------------------------------------------
              Anisotropic Spin Dipole Couplings in Principal Axis System
 ---------------------------------------------------------------------------------

       Atom             a.u.   MegaHertz   Gauss  10(-4) cm-1        Axes

              Baa    -0.0340   -18.146    -6.475    -6.053 -0.0000  0.9737 -0.2280
     1 H(1)   Bbb    -0.0340   -18.146    -6.475    -6.053 -0.0000  0.2280  0.9737
              Bcc     0.0680    36.291    12.950    12.105  1.0000  0.0000 -0.0000
 
              Baa    -0.0154    -8.200    -2.926    -2.735  1.0000 -0.0000 -0.0000
     2 H(1)   Bbb     0.0077     4.100     1.463     1.368  0.0000  0.1377  0.9905
              Bcc     0.0077     4.100     1.463     1.368  0.0000  0.9905 -0.1377
 
              Baa    -2.2546 -1132.319  -404.039  -377.701  0.0000  0.2231  0.9748
     3 F(19)  Bbb    -2.2546 -1132.319  -404.039  -377.701  0.0000  0.9748 -0.2231
              Bcc     4.5092  2264.637   808.079   755.402  1.0000 -0.0000  0.0000
 

 ---------------------------------------------------------------------------------

 Calling FoFJK, ICntrl=    100127 FMM=F ISym2X=0 I1Cent= 0 IOpClX= 1 NMat=1 NMatS=1 NMatT=0.
 Full mass-weighted force constant matrix:
 Low frequencies ----1721.4522 -599.1560    0.0007    0.0008    0.0016  304.0546
 Low frequencies ---  304.0546  712.8966  712.8966
 ******    2 imaginary frequencies (negative Signs) ****** 
 Diagonal vibrational polarizability:
        3.2187577       0.8907626       0.8907626
 Harmonic frequencies (cm**-1), IR intensities (KM/Mole), Raman scattering
 activities (A**4/AMU), depolarization ratios for plane and unpolarized
 incident light, reduced masses (AMU), force constants (mDyne/A),
 and normal coordinates:
                      1                      2                      3
                      A                      A                      A
 Frequencies --  -1721.4522              -599.1560               710.5234
 Red. masses --      1.0224                 1.0914                 1.0183
 Frc consts  --      1.7851                 0.2308                 0.3029
 IR Inten    --    141.7560                25.7649                16.7104
  Atom  AN      X      Y      Z        X      Y      Z        X      Y      Z
     1   1     0.92   0.00  -0.00     0.35   0.00  -0.00    -0.00   0.86  -0.25
     2   1    -0.39  -0.00   0.00     0.93  -0.00   0.00    -0.00  -0.42   0.12
     3   9    -0.03  -0.00   0.00    -0.07  -0.00   0.00     0.00  -0.02   0.01
                      4
                      A
 Frequencies --    710.5234
 Red. masses --      1.0183
 Frc consts  --      0.3029
 IR Inten    --     16.7104
  Atom  AN      X      Y      Z
     1   1    -0.00   0.25   0.86
     2   1    -0.00  -0.12  -0.42
     3   9     0.00  -0.01  -0.02

 -------------------
 - Thermochemistry -
 -------------------
 Temperature   298.150 Kelvin.  Pressure   1.00000 Atm.
 Atom     1 has atomic number  1 and mass   1.00783
 Atom     2 has atomic number  1 and mass   1.00783
 Atom     3 has atomic number  9 and mass  18.99840
 Molecular mass:    21.01405 amu.
 Principal axes and moments of inertia in atomic units:
                           1         2         3
     Eigenvalues --     0.00000  60.63191  60.63191
           X            1.00000  -0.00000   0.00000
           Y            0.00000   1.00000   0.00000
           Z            0.00000   0.00000   1.00000
 This molecule is a prolate symmetric top.
 Rotational symmetry number  1.
 Rotational temperature (Kelvin)      1.42852
 Rotational constant (GHZ):          29.765535
    2 imaginary frequencies ignored.
 Zero-point vibrational energy       8499.7 (Joules/Mol)
                                    2.03149 (Kcal/Mol)
 Vibrational temperatures:   1022.28  1022.28
          (Kelvin)
 
 Zero-point correction=                           0.003237 (Hartree/Particle)
 Thermal correction to Energy=                    0.005815
 Thermal correction to Enthalpy=                  0.006759
 Thermal correction to Gibbs Free Energy=        -0.016824
 Sum of electronic and zero-point Energies=           -100.805824
 Sum of electronic and thermal Energies=              -100.803246
 Sum of electronic and thermal Enthalpies=            -100.802302
 Sum of electronic and thermal Free Energies=         -100.825885
 
                     E (Thermal)             CV                S
                      KCal/Mol        Cal/Mol-Kelvin    Cal/Mol-Kelvin
 Total                    3.649              6.586             49.634
 Electronic               0.000              0.000              1.377
 Translational            0.889              2.981             35.068
 Rotational               0.592              1.987             12.601
 Vibrational              2.168              1.618              0.588
                       Q            Log10(Q)             Ln(Q)
 Total Bot       0.547442D+08          7.738338         17.818182
 Total V=0       0.168822D+10          9.227430         21.246942
 Vib (Bot)       0.346371D-01         -1.460459         -3.362831
 Vib (V=0)       0.106815D+01          0.028633          0.065929
 Electronic      0.200000D+01          0.301030          0.693147
 Translational   0.378633D+07          6.578219         15.146908
 Rotational      0.208712D+03          2.319548          5.340957
 -------------------------------------------------------------------
 Center     Atomic                   Forces (Hartrees/Bohr)
 Number     Number              X              Y              Z
 -------------------------------------------------------------------
      1        1           0.021063412    0.000000000   -0.000000000
      2        1           0.019826254    0.000000000   -0.000000000
      3        9          -0.040889666   -0.000000000    0.000000000
 -------------------------------------------------------------------
 Cartesian Forces:  Max     0.040889666 RMS     0.016695683

 GradGradGradGradGradGradGradGradGradGradGradGradGradGradGradGradGradGrad
 Berny optimization.
 Search for a local minimum.
 Step number   1 out of a maximum of    2
 All quantities printed in internal units (Hartrees-Bohrs-Radians)
 Second derivative matrix not updated -- analytic derivatives used.
 The second derivative matrix:
                          X1        Y1        Z1        X2        Y2
           X1          -0.09632
           Y1          -0.00000   0.01689
           Z1           0.00000   0.00000   0.01689
           X2           0.03546  -0.00000  -0.00000  -0.02758
           Y2           0.00000  -0.00544   0.00000  -0.00000   0.00541
           Z2          -0.00000   0.00000  -0.00544   0.00000   0.00000
           X3           0.06086   0.00000  -0.00000  -0.00788  -0.00000
           Y3           0.00000  -0.01145  -0.00000   0.00000   0.00003
           Z3          -0.00000  -0.00000  -0.01145  -0.00000  -0.00000
                          Z2        X3        Y3        Z3
           Z2           0.00541
           X3           0.00000  -0.05298
           Y3          -0.00000  -0.00000   0.01142
           Z3           0.00003   0.00000   0.00000   0.01142
 ITU=  0
     Eigenvalues ---   -0.13387  -0.02375   0.02184   0.02184
 Eigenvalue     1 is  -1.34D-01 should be greater than     0.000000 Eigenvector:
                          X1        X3        X2        Y1        Y2
   1                    0.94635  -0.24534  -0.21033   0.00000  -0.00000
                          Z1        Y3        Z2        Z3
   1                   -0.00000  -0.00000   0.00000   0.00000
 Eigenvalue     2 is  -2.38D-02 should be greater than     0.000000 Eigenvector:
                          X2        X3        X1        Y1        Y2
   1                    0.92997  -0.34875   0.11628   0.00000  -0.00000
                          Y3        Z1        Z2        Z3
   1                   -0.00000  -0.00000   0.00000   0.00000
 Quadratic step=1.492D+00 exceeds max=3.000D-01 adjusted using Lamda=-1.019D-01.
 Angle between NR and scaled steps=  13.94 degrees.
 Angle between quadratic step and forces=  32.74 degrees.
 Linear search not attempted -- first point.
 B after Tr=    -0.082935   -0.000000   -0.000000
         Rot=    0.984747   -0.173995    0.000000    0.000000 Ang= -20.04 deg.
 Variable       Old X    -DE/DX   Delta X   Delta X   Delta X     New X
                                 (Linear)    (Quad)   (Total)
    X1        0.00000   0.02106   0.00000   0.13607   0.05314   0.05314
    Y1        0.00000   0.00000   0.00000   0.00000   0.00000   0.00000
    Z1        0.00000  -0.00000   0.00000  -0.00000   0.00000   0.00000
    X2       -3.68497   0.01983   0.00000   0.23714   0.15420  -3.53076
    Y2        0.00000   0.00000   0.00000  -0.00000  -0.00000  -0.00000
    Z2        0.00000  -0.00000   0.00000   0.00000  -0.00000  -0.00000
    X3        3.59048  -0.04089   0.00000  -0.12440  -0.20734   3.38314
    Y3        0.00000  -0.00000   0.00000  -0.00000  -0.00000  -0.00000
    Z3        0.00000   0.00000   0.00000   0.00000  -0.00000  -0.00000
         Item               Value     Threshold  Converged?
 Maximum Force            0.040890     0.000450     NO 
 RMS     Force            0.016696     0.000300     NO 
 Maximum Displacement     0.207338     0.001800     NO 
 RMS     Displacement     0.087934     0.001200     NO 
 Predicted change in Energy=-1.438508D-02
 GradGradGradGradGradGradGradGradGradGradGradGradGradGradGradGradGradGrad


 ----------------------------------------------------------------------

 Electric dipole moment (input orientation):
 (Debye = 10**-18 statcoulomb cm , SI units = C m)
                  (au)            (Debye)         (10**-30 SI)
   Tot        0.975881D+00      0.248044D+01      0.827387D+01
   x         -0.975881D+00     -0.248044D+01     -0.827387D+01
   y          0.000000D+00      0.000000D+00      0.000000D+00
   z          0.000000D+00      0.000000D+00      0.000000D+00

 Dipole polarizability, Alpha (input orientation).
 (esu units = cm**3 , SI units = C**2 m**2 J**-1)
 Alpha(0;0):
               (au)            (10**-24 esu)      (10**-40 SI)
   iso        0.172476D+02      0.255583D+01      0.284375D+01
   aniso      0.454813D+02      0.673964D+01      0.749886D+01
   xx         0.475685D+02      0.704892D+01      0.784298D+01
   yx         0.000000D+00      0.000000D+00      0.000000D+00
   yy         0.208717D+01      0.309286D+00      0.344128D+00
   zx         0.000000D+00      0.000000D+00      0.000000D+00
   zy         0.000000D+00      0.000000D+00      0.000000D+00
   zz         0.208717D+01      0.309286D+00      0.344128D+00

 ----------------------------------------------------------------------

 Dipole orientation:
     1          0.00000000          0.00000000          0.00000000
     1         -0.00000000          0.00000000          3.68496594
     9          0.00000000         -0.00000000         -3.59047964

 Electric dipole moment (dipole orientation):
 (Debye = 10**-18 statcoulomb cm , SI units = C m)
                  (au)            (Debye)         (10**-30 SI)
   Tot        0.975881D+00      0.248044D+01      0.827387D+01
   x          0.000000D+00      0.000000D+00      0.000000D+00
   y          0.000000D+00      0.000000D+00      0.000000D+00
   z          0.975881D+00      0.248044D+01      0.827387D+01

 Dipole polarizability, Alpha (dipole orientation).
 (esu units = cm**3 , SI units = C**2 m**2 J**-1)
 Alpha(0;0):
               (au)            (10**-24 esu)      (10**-40 SI)
   iso        0.172476D+02      0.255583D+01      0.284375D+01
   aniso      0.454813D+02      0.673964D+01      0.749886D+01
   xx         0.208717D+01      0.309286D+00      0.344128D+00
   yx         0.000000D+00      0.000000D+00      0.000000D+00
   yy         0.208717D+01      0.309286D+00      0.344128D+00
   zx         0.000000D+00      0.000000D+00      0.000000D+00
   zy         0.000000D+00      0.000000D+00      0.000000D+00
   zz         0.475685D+02      0.704892D+01      0.784298D+01

 ----------------------------------------------------------------------
 Unable to Open any file for archive entry.
 1\1\GINC-DESKTOP-B3RIHJD\Freq\UB3LYP\6-311G(d,p)\F1H2(2)\GARYX\22-Aug-
 2025\0\\# sp b3lyp/6-311g** Force nosymm scf=(qc)\\Title Card Required
 \\0,2\H,0.,0.,0.\H,-1.95,0.,0.\F,1.9,0.,0.\\Version=ES64L-G16RevC.01\H
 F=-100.8090609\S2=1.119365\S2-1=0.\S2A=0.750449\RMSD=1.508e-10\RMSF=1.
 670e-02\ZeroPoint=0.0032374\Thermal=0.0058148\ETot=-100.8032461\HTot=-
 100.8023019\GTot=-100.8258846\Dipole=-0.9758813,0.,0.\DipoleDeriv=-0.4
 05534,0.,0.,0.,0.1670108,0.,0.,0.,0.1670108,-0.0000012,0.,0.,0.,0.0517
 096,0.,0.,0.,0.0517096,0.4055352,0.,0.,0.,-0.2187204,0.,0.,0.,-0.21872
 04\Polar=47.5684911,0.,2.0871684,0.,0.,2.0871684\Quadrupole=-0.5936764
 ,0.2968382,0.2968382,0.,0.,0.\PG=C*V [C*(H1H1F1)]\NImag=2\\-0.09632469
 ,0.,0.01689310,0.,0.,0.01689310,0.03546177,0.,0.,-0.02757940,0.,-0.005
 44142,0.,0.,0.00541043,0.,0.,-0.00544142,0.,0.,0.00541043,0.06086292,0
 .,0.,-0.00788236,0.,0.,-0.05298056,0.,-0.01145167,0.,0.,0.00003100,0.,
 0.,0.01142068,0.,0.,-0.01145167,0.,0.,0.00003100,0.,0.,0.01142068\\-0.
 02106341,0.,0.,-0.01982625,0.,0.,0.04088967,0.,0.\\\@
 The archive entry for this job was punched.


 MICRO CREDO - NEVER TRUST A COMPUTER BIGGER
               BIGGER THAN YOU CAN LIFT.
 Job cpu time:       0 days  0 hours  0 minutes 18.5 seconds.
 Elapsed time:       0 days  0 hours  0 minutes  2.5 seconds.
 File lengths (MBytes):  RWF=      6 Int=      0 D2E=      0 Chk=      1 Scr=      1
 Normal termination of Gaussian 16 at Fri Aug 22 16:49:59 2025.
