 Entering Gaussian System, Link 0=g16
 Initial command:
 /home/garyx/gaussian/g16/l1.exe "/tmp/gaussian_scratch/Gau-427718.inp" -scrdir="/tmp/gaussian_scratch/"
 Entering Link 1 = /home/garyx/gaussian/g16/l1.exe PID=    427720.
  
 Copyright (c) 1988-2019, Gaussian, Inc.  All Rights Reserved.
  
 This is part of the Gaussian(R) 16 program.  It is based on
 the Gaussian(R) 09 system (copyright 2009, Gaussian, Inc.),
 the Gaussian(R) 03 system (copyright 2003, Gaussian, Inc.),
 the Gaussian(R) 98 system (copyright 1998, Gaussian, Inc.),
 the Gaussian(R) 94 system (copyright 1995, Gaussian, Inc.),
 the Gaussian 92(TM) system (copyright 1992, Gaussian, Inc.),
 the Gaussian 90(TM) system (copyright 1990, Gaussian, Inc.),
 the Gaussian 88(TM) system (copyright 1988, Gaussian, Inc.),
 the Gaussian 86(TM) system (copyright 1986, Carnegie Mellon
 University), and the Gaussian 82(TM) system (copyright 1983,
 Carnegie Mellon University). Gaussian is a federally registered
 trademark of Gaussian, Inc.
  
 This software contains proprietary and confidential information,
 including trade secrets, belonging to Gaussian, Inc.
  
 This software is provided under written license and may be
 used, copied, transmitted, or stored only in accord with that
 written license.
  
 The following legend is applicable only to US Government
 contracts under FAR:
  
                    RESTRICTED RIGHTS LEGEND
  
 Use, reproduction and disclosure by the US Government is
 subject to restrictions as set forth in subparagraphs (a)
 and (c) of the Commercial Computer Software - Restricted
 Rights clause in FAR 52.227-19.
  
 Gaussian, Inc.
 340 Quinnipiac St., Bldg. 40, Wallingford CT 06492
  
  
 ---------------------------------------------------------------
 Warning -- This program may not be used in any manner that
 competes with the business of Gaussian, Inc. or will provide
 assistance to any competitor of Gaussian, Inc.  The licensee
 of this program is prohibited from giving any competitor of
 Gaussian, Inc. access to this program.  By using this program,
 the user acknowledges that Gaussian, Inc. is engaged in the
 business of creating and licensing software in the field of
 computational chemistry and represents and warrants to the
 licensee that it is not a competitor of Gaussian, Inc. and that
 it will not use this program in any manner prohibited above.
 ---------------------------------------------------------------
  

 Cite this work as:
 Gaussian 16, Revision C.01,
 M. J. Frisch, G. W. Trucks, H. B. Schlegel, G. E. Scuseria, 
 M. A. Robb, J. R. Cheeseman, G. Scalmani, V. Barone, 
 G. A. Petersson, H. Nakatsuji, X. Li, M. Caricato, A. V. Marenich, 
 J. Bloino, B. G. Janesko, R. Gomperts, B. Mennucci, H. P. Hratchian, 
 J. V. Ortiz, A. F. Izmaylov, J. L. Sonnenberg, D. Williams-Young, 
 F. Ding, F. Lipparini, F. Egidi, J. Goings, B. Peng, A. Petrone, 
 T. Henderson, D. Ranasinghe, V. G. Zakrzewski, J. Gao, N. Rega, 
 G. Zheng, W. Liang, M. Hada, M. Ehara, K. Toyota, R. Fukuda, 
 J. Hasegawa, M. Ishida, T. Nakajima, Y. Honda, O. Kitao, H. Nakai, 
 T. Vreven, K. Throssell, J. A. Montgomery, Jr., J. E. Peralta, 
 F. Ogliaro, M. J. Bearpark, J. J. Heyd, E. N. Brothers, K. N. Kudin, 
 V. N. Staroverov, T. A. Keith, R. Kobayashi, J. Normand, 
 K. Raghavachari, A. P. Rendell, J. C. Burant, S. S. Iyengar, 
 J. Tomasi, M. Cossi, J. M. Millam, M. Klene, C. Adamo, R. Cammi, 
 J. W. Ochterski, R. L. Martin, K. Morokuma, O. Farkas, 
 J. B. Foresman, and D. J. Fox, Gaussian, Inc., Wallingford CT, 2019.
 
 ******************************************
 Gaussian 16:  ES64L-G16RevC.01  3-Jul-2019
                22-Aug-2025 
 ******************************************
 %mem=10GB
 %nprocs=8
 Will use up to    8 processors via shared memory.
 -----------------------------------------
 # sp b3lyp/6-311g** Force nosymm scf=(qc)
 -----------------------------------------
 1/10=4,30=1,38=1/1,3;
 2/12=2,15=1,17=6,18=5,40=1/2;
 3/5=4,6=6,7=101,11=2,25=1,30=1,71=2,74=-5,140=1/1,2,3;
 4//1;
 5/5=2,8=3,38=5,98=1/8;
 8/6=4,10=90,11=11/1;
 11/6=1,8=1,9=11,15=111,16=1,31=1/1,2,10;
 10/6=1,31=1/2;
 6/7=2,8=2,9=2,10=2,28=1/1;
 7/8=1,10=1,25=1,30=1/1,2,3,16;
 1/10=4,30=1/3;
 99//99;
 -------------------
 Title Card Required
 -------------------
 Symbolic Z-matrix:
 Charge =  0 Multiplicity = 2
 H                     0.        0.        0. 
 H                    -1.        0.        0. 
 F                     1.9       0.        0. 
 

 GradGradGradGradGradGradGradGradGradGradGradGradGradGradGradGradGradGrad
 Berny optimization.
 Initialization pass.
 Trust Radius=3.00D-01 FncErr=1.00D-07 GrdErr=1.00D-07 EigMax=2.50D+02 EigMin=1.00D-04
 Number of steps in this run=      2 maximum allowed number of steps=      2.
 GradGradGradGradGradGradGradGradGradGradGradGradGradGradGradGradGradGrad

                          Input orientation:                          
 ---------------------------------------------------------------------
 Center     Atomic      Atomic             Coordinates (Angstroms)
 Number     Number       Type             X           Y           Z
 ---------------------------------------------------------------------
      1          1           0        0.000000    0.000000    0.000000
      2          1           0       -1.000000    0.000000    0.000000
      3          9           0        1.900000    0.000000    0.000000
 ---------------------------------------------------------------------
                    Distance matrix (angstroms):
                    1          2          3
     1  H    0.000000
     2  H    1.000000   0.000000
     3  F    1.900000   2.900000   0.000000
 Symmetry turned off by external request.
 Stoichiometry    FH2(2)
 Framework group  C*V[C*(HHF)]
 Deg. of freedom     2
 Full point group                 C*V     NOp   4
 Rotational constants (GHZ):           0.0000000          45.9417847          45.9417847
 Standard basis: 6-311G(d,p) (5D, 7F)
    30 basis functions,    48 primitive gaussians,    31 cartesian basis functions
     6 alpha electrons        5 beta electrons
       nuclear repulsion energy         4.6780802076 Hartrees.
 NAtoms=    3 NActive=    3 NUniq=    3 SFac= 1.00D+00 NAtFMM=   60 NAOKFM=F Big=F
 Integral buffers will be    131072 words long.
 Raffenetti 2 integral format.
 Two-electron integral symmetry is turned off.
 One-electron integrals computed using PRISM.
 NBasis=    30 RedAO= T EigKep=  3.19D-02  NBF=    30
 NBsUse=    30 1.00D-06 EigRej= -1.00D+00 NBFU=    30
 ExpMin= 1.03D-01 ExpMax= 1.14D+04 ExpMxC= 1.72D+03 IAcc=3 IRadAn=         5 AccDes= 0.00D+00
 Harris functional with IExCor=  402 and IRadAn=       5 diagonalized for initial guess.
 HarFok:  IExCor=  402 AccDes= 0.00D+00 IRadAn=         5 IDoV= 1 UseB2=F ITyADJ=14
 ICtDFT=  3500011 ScaDFX=  1.000000  1.000000  1.000000  1.000000
 FoFCou: FMM=F IPFlag=           0 FMFlag=      100000 FMFlg1=           0
         NFxFlg=           0 DoJE=T BraDBF=F KetDBF=T FulRan=T
         wScrn=  0.000000 ICntrl=       500 IOpCl=  0 I1Cent=   200000004 NGrid=           0
         NMat0=    1 NMatS0=      1 NMatT0=    0 NMatD0=    1 NMtDS0=    0 NMtDT0=    0
 Symmetry not used in FoFCou.
 Initial guess <Sx>= 0.0000 <Sy>= 0.0000 <Sz>= 0.5000 <S**2>= 0.7500 S= 0.5000
 Keep R1 and R2 ints in memory in canonical form, NReq=7127049.
 Gradient too large for Newton-Raphson -- use scaled steepest descent instead.
     Accept linear search using points  1 and  2.
 Gradient too large for Newton-Raphson -- use scaled steepest descent instead.
     Minimum is close to point  3 DX=  3.72D-02 DF= -7.64D-05 DXR=  8.52D-02 DFR=  6.46D-03 which will be used.
 Gradient too large for Newton-Raphson -- use scaled steepest descent instead.
     Minimum is close to point  4 DX=  3.25D-02 DF= -6.50D-06 DXR=  3.91D-02 DFR=  1.54D-03 which will be used.
 Gradient too large for Newton-Raphson -- use scaled steepest descent instead.
     Accept linear search using points  1 and  2.
 Gradient too large for Newton-Raphson -- use scaled steepest descent instead.
 LinEq1:  Iter=  0 NonCon=     1 RMS=3.76D-04 Max=5.33D-03 NDo=     1
 AX will form     1 AO Fock derivatives at one time.
 LinEq1:  Iter=  1 NonCon=     1 RMS=2.22D-04 Max=1.75D-03 NDo=     1
 LinEq1:  Iter=  2 NonCon=     1 RMS=6.56D-05 Max=6.78D-04 NDo=     1
 LinEq1:  Iter=  3 NonCon=     1 RMS=2.72D-05 Max=2.77D-04 NDo=     1
 LinEq1:  Iter=  4 NonCon=     1 RMS=5.05D-06 Max=3.81D-05 NDo=     1
 LinEq1:  Iter=  5 NonCon=     1 RMS=1.37D-06 Max=1.04D-05 NDo=     1
 LinEq1:  Iter=  6 NonCon=     1 RMS=2.14D-07 Max=1.41D-06 NDo=     1
 LinEq1:  Iter=  7 NonCon=     1 RMS=2.25D-08 Max=1.79D-07 NDo=     1
 LinEq1:  Iter=  8 NonCon=     1 RMS=3.52D-09 Max=1.98D-08 NDo=     1
 LinEq1:  Iter=  9 NonCon=     0 RMS=3.16D-10 Max=1.37D-09 NDo=     1
 Linear equations converged to 1.640D-09 1.640D-08 after     9 iterations.
     Minimum is close to point  2 DX=  2.70D-03 DF= -8.61D-11 DXR=  2.69D-03 DFR=  7.23D-06 which will be used.
 LinEq1:  Iter=  0 NonCon=     1 RMS=1.90D-06 Max=2.98D-05 NDo=     1
 LinEq1:  Iter=  1 NonCon=     1 RMS=6.70D-07 Max=6.16D-06 NDo=     1
 LinEq1:  Iter=  2 NonCon=     1 RMS=3.30D-07 Max=3.99D-06 NDo=     1
 LinEq1:  Iter=  3 NonCon=     1 RMS=1.28D-07 Max=1.16D-06 NDo=     1
 LinEq1:  Iter=  4 NonCon=     1 RMS=2.98D-08 Max=2.78D-07 NDo=     1
 LinEq1:  Iter=  5 NonCon=     1 RMS=8.77D-09 Max=9.87D-08 NDo=     1
 LinEq1:  Iter=  6 NonCon=     1 RMS=9.42D-10 Max=8.81D-09 NDo=     1
 LinEq1:  Iter=  7 NonCon=     1 RMS=2.03D-10 Max=1.55D-09 NDo=     1
 LinEq1:  Iter=  8 NonCon=     0 RMS=2.11D-11 Max=1.25D-10 NDo=     1
 Linear equations converged to 7.117D-11 7.117D-10 after     8 iterations.
 SCF Done:  E(UB3LYP) =  -100.912022421     a.u. after    8 cycles
            Convg  =    0.8047D-09                    36 Fock formations.
              S**2 =  0.7565                  -V/T =  2.0034
 <Sx>= 0.0000 <Sy>= 0.0000 <Sz>= 0.5000 <S**2>= 0.7565 S= 0.5032
 <L.S>=  0.00000000000    
 Annihilation of the first spin contaminant:
 S**2 before annihilation     0.7565,   after     0.7500
 DoSCS=F DFT=T ScalE2(SS,OS)=  1.000000  1.000000
 Range of M.O.s used for correlation:     1    30
 NBasis=    30 NAE=     6 NBE=     5 NFC=     0 NFV=     0
 NROrb=     30 NOA=     6 NOB=     5 NVA=    24 NVB=    25
 Symmetrizing basis deriv contribution to polar:
 IMax=3 JMax=2 DiffMx= 0.00D+00
 G2DrvN: will do     4 centers at a time, making    1 passes.
 Calling FoFCou, ICntrl=  3107 FMM=F I1Cent=   0 AccDes= 0.00D+00.
 End of G2Drv F.D. properties file   721 does not exist.
 End of G2Drv F.D. properties file   722 does not exist.
 End of G2Drv F.D. properties file   788 does not exist.
          IDoAtm=111
          Differentiating once with respect to electric field.
                with respect to dipole field.
          Differentiating once with respect to nuclear coordinates.
 Keep R1 and R2 ints in memory in canonical form, NReq=7101505.
          There are    12 degrees of freedom in the 1st order CPHF.  IDoFFX=6 NUNeed=     3.
      9 vectors produced by pass  0 Test12= 2.24D-15 8.33D-09 XBig12= 1.02D+02 9.47D+00.
 AX will form     9 AO Fock derivatives at one time.
      9 vectors produced by pass  1 Test12= 2.24D-15 8.33D-09 XBig12= 5.42D+00 7.59D-01.
      9 vectors produced by pass  2 Test12= 2.24D-15 8.33D-09 XBig12= 1.11D+00 5.12D-01.
      9 vectors produced by pass  3 Test12= 2.24D-15 8.33D-09 XBig12= 1.73D-02 5.18D-02.
      9 vectors produced by pass  4 Test12= 2.24D-15 8.33D-09 XBig12= 5.33D-05 3.08D-03.
      5 vectors produced by pass  5 Test12= 2.24D-15 8.33D-09 XBig12= 4.12D-08 8.09D-05.
      2 vectors produced by pass  6 Test12= 2.24D-15 8.33D-09 XBig12= 1.08D-10 3.78D-06.
      1 vectors produced by pass  7 Test12= 2.24D-15 8.33D-09 XBig12= 2.24D-13 2.09D-07.
 InvSVY:  IOpt=1 It=  1 EMax= 1.85D-15
 Solved reduced A of dimension    53 with     9 vectors.
 Isotropic polarizability for W=    0.000000       11.72 Bohr**3.
 End of Minotr F.D. properties file   721 does not exist.
 End of Minotr F.D. properties file   722 does not exist.
 End of Minotr F.D. properties file   788 does not exist.

 **********************************************************************

            Population analysis using the SCF Density.

 **********************************************************************

 Alpha  occ. eigenvalues --  -24.72881  -1.19167  -0.53038  -0.43788  -0.43788
 Alpha  occ. eigenvalues --   -0.41250
 Alpha virt. eigenvalues --    0.01004   0.21000   0.37082   0.91177   0.91177
 Alpha virt. eigenvalues --    0.91886   1.07298   1.07298   1.10228   1.53131
 Alpha virt. eigenvalues --    1.63695   1.63695   2.20645   2.33185   2.60538
 Alpha virt. eigenvalues --    3.70390   3.70390   3.71161   3.76928   3.76928
 Alpha virt. eigenvalues --    5.96734   5.96734   6.00235  66.53182
  Beta  occ. eigenvalues --  -24.70035  -1.11121  -0.41437  -0.40965  -0.40965
  Beta virt. eigenvalues --   -0.24987   0.02446   0.21832   0.37746   0.92413
  Beta virt. eigenvalues --    0.92413   0.99248   1.08571   1.08571   1.13088
  Beta virt. eigenvalues --    1.55734   1.64510   1.64510   2.22162   2.34585
  Beta virt. eigenvalues --    2.61196   3.78404   3.78404   3.79187   3.79187
  Beta virt. eigenvalues --    3.83328   5.99134   5.99134   6.12695  66.56006
          Condensed to atoms (all electrons):
               1          2          3
     1  H    0.599838   0.339443   0.020467
     2  H    0.339443   0.618253  -0.002082
     3  F    0.020467  -0.002082   9.066250
          Atomic-Atomic Spin Densities.
               1          2          3
     1  H   -0.070822   0.019241  -0.015049
     2  H    0.019241   0.164757  -0.006759
     3  F   -0.015049  -0.006759   0.911197
 Mulliken charges and spin densities:
               1          2
     1  H    0.040251  -0.066629
     2  H    0.044385   0.177240
     3  F   -0.084636   0.889389
 Sum of Mulliken charges =   0.00000   1.00000
 Mulliken charges and spin densities with hydrogens summed into heavy atoms:
               1          2
     3  F    0.000000   1.000000
 APT charges:
               1
     1  H   -0.241778
     2  H    0.174293
     3  F    0.067485
 Sum of APT charges =   0.00000
 APT charges with hydrogens summed into heavy atoms:
               1
     3  F    0.000000
 Electronic spatial extent (au):  <R**2>=            135.2174
 Charge=              0.0000 electrons
 Dipole moment (field-independent basis, Debye):
    X=             -0.9838    Y=              0.0000    Z=              0.0000  Tot=              0.9838
 Quadrupole moment (field-independent basis, Debye-Ang):
   XX=             -6.6619   YY=             -7.1754   ZZ=             -7.1754
   XY=              0.0000   XZ=              0.0000   YZ=              0.0000
 Traceless Quadrupole moment (field-independent basis, Debye-Ang):
   XX=              0.3423   YY=             -0.1712   ZZ=             -0.1712
   XY=              0.0000   XZ=              0.0000   YZ=              0.0000
 Octapole moment (field-independent basis, Debye-Ang**2):
  XXX=            -23.9891  YYY=              0.0000  ZZZ=              0.0000  XYY=             -8.2382
  XXY=             -0.0000  XXZ=              0.0000  XZZ=             -8.2382  YZZ=              0.0000
  YYZ=              0.0000  XYZ=              0.0000
 Hexadecapole moment (field-independent basis, Debye-Ang**3):
 XXXX=           -102.0965 YYYY=             -5.2937 ZZZZ=             -5.2937 XXXY=             -0.0000
 XXXZ=              0.0000 YYYX=             -0.0000 YYYZ=              0.0000 ZZZX=              0.0000
 ZZZY=              0.0000 XXYY=            -20.3071 XXZZ=            -20.3071 YYZZ=             -1.7646
 XXYZ=              0.0000 YYXZ=              0.0000 ZZXY=             -0.0000
 N-N= 4.678080207607D+00 E-N=-2.505649774523D+02  KE= 1.005699899990D+02
  Exact polarizability:      30.776       0.000       2.197      -0.000      -0.000       2.197
 Approx polarizability:      40.757       0.000       2.217       0.000       0.000       2.217
                          Isotropic Fermi Contact Couplings
        Atom                 a.u.       MegaHertz       Gauss      10(-4) cm-1
     1  H(1)              -0.00834     -37.29675     -13.30841     -12.44086
     2  H(1)               0.05790     258.82571      92.35545      86.33497
     3  F(19)              0.02769     116.49164      41.56711      38.85743
 --------------------------------------------------------
       Center         ----  Spin Dipole Couplings  ----
                      3XX-RR        3YY-RR        3ZZ-RR
 --------------------------------------------------------
     1   Atom        0.081497     -0.040748     -0.040748
     2   Atom        0.014378     -0.007189     -0.007189
     3   Atom        5.697660     -2.848830     -2.848830
 --------------------------------------------------------
                        XY            XZ            YZ
 --------------------------------------------------------
     1   Atom        0.000000      0.000000      0.000000
     2   Atom        0.000000      0.000000      0.000000
     3   Atom        0.000000      0.000000      0.000000
 --------------------------------------------------------


 ---------------------------------------------------------------------------------
              Anisotropic Spin Dipole Couplings in Principal Axis System
 ---------------------------------------------------------------------------------

       Atom             a.u.   MegaHertz   Gauss  10(-4) cm-1        Axes

              Baa    -0.0407   -21.741    -7.758    -7.252 -0.0000  1.0000  0.0000
     1 H(1)   Bbb    -0.0407   -21.741    -7.758    -7.252  0.0000  0.0000  1.0000
              Bcc     0.0815    43.483    15.516    14.504  1.0000  0.0000  0.0000
 
              Baa    -0.0072    -3.836    -1.369    -1.279 -0.0000  1.0000  0.0000
     2 H(1)   Bbb    -0.0072    -3.836    -1.369    -1.279  0.0000  0.0000  1.0000
              Bcc     0.0144     7.672     2.737     2.559  1.0000  0.0000  0.0000
 
              Baa    -2.8488 -1430.755  -510.529  -477.249 -0.0000  1.0000  0.0000
     3 F(19)  Bbb    -2.8488 -1430.755  -510.529  -477.249  0.0000  0.0000  1.0000
              Bcc     5.6977  2861.511  1021.058   954.497  1.0000  0.0000  0.0000
 

 ---------------------------------------------------------------------------------

 Calling FoFJK, ICntrl=    100127 FMM=F ISym2X=0 I1Cent= 0 IOpClX= 1 NMat=1 NMatS=1 NMatT=0.
 Full mass-weighted force constant matrix:
 Low frequencies --- -576.2733    0.0017    0.0017    0.0022  174.3359  174.3359
 Low frequencies --- 1424.7993 1454.8840 1454.8840
 ******    1 imaginary frequencies (negative Signs) ****** 
 Diagonal vibrational polarizability:
       25.8414968       0.0001413       0.0001413
 Harmonic frequencies (cm**-1), IR intensities (KM/Mole), Raman scattering
 activities (A**4/AMU), depolarization ratios for plane and unpolarized
 incident light, reduced masses (AMU), force constants (mDyne/A),
 and normal coordinates:
                      1                      2                      3
                      A                      A                      A
 Frequencies --   -576.2733              1424.0930              1424.0930
 Red. masses --      1.1014                 1.0120                 1.0120
 Frc consts  --      0.2155                 1.2093                 1.2093
 IR Inten    --    226.3928                 0.0106                 0.0106
  Atom  AN      X      Y      Z        X      Y      Z        X      Y      Z
     1   1     0.87   0.00   0.00     0.00   0.84   0.00    -0.00  -0.00   0.84
     2   1     0.49  -0.00  -0.00    -0.00  -0.55  -0.00     0.00   0.00  -0.55
     3   9    -0.07  -0.00  -0.00     0.00  -0.02  -0.00    -0.00   0.00  -0.02
                      4
                      A
 Frequencies --   1424.7993
 Red. masses --      1.0138
 Frc consts  --      1.2126
 IR Inten    --    565.4333
  Atom  AN      X      Y      Z
     1   1    -0.51   0.00  -0.00
     2   1     0.86  -0.00   0.00
     3   9    -0.02  -0.00   0.00

 -------------------
 - Thermochemistry -
 -------------------
 Temperature   298.150 Kelvin.  Pressure   1.00000 Atm.
 Atom     1 has atomic number  1 and mass   1.00783
 Atom     2 has atomic number  1 and mass   1.00783
 Atom     3 has atomic number  9 and mass  18.99840
 Molecular mass:    21.01405 amu.
 Principal axes and moments of inertia in atomic units:
                           1         2         3
     Eigenvalues --     0.00000  39.28322  39.28322
           X            1.00000  -0.00000   0.00000
           Y            0.00000   1.00000   0.00000
           Z            0.00000   0.00000   1.00000
 This molecule is a prolate symmetric top.
 Rotational symmetry number  1.
 Rotational temperature (Kelvin)      2.20486
 Rotational constant (GHZ):          45.941785
    1 imaginary frequencies ignored.
 Zero-point vibrational energy      25558.1 (Joules/Mol)
                                    6.10854 (Kcal/Mol)
 Vibrational temperatures:   2048.95  2048.95  2049.97
          (Kelvin)
 
 Zero-point correction=                           0.009735 (Hartree/Particle)
 Thermal correction to Energy=                    0.012115
 Thermal correction to Enthalpy=                  0.013059
 Thermal correction to Gibbs Free Energy=        -0.009857
 Sum of electronic and zero-point Energies=           -100.902288
 Sum of electronic and thermal Energies=              -100.899907
 Sum of electronic and thermal Enthalpies=            -100.898963
 Sum of electronic and thermal Free Energies=         -100.921880
 
                     E (Thermal)             CV                S
                      KCal/Mol        Cal/Mol-Kelvin    Cal/Mol-Kelvin
 Total                    7.602              5.260             48.232
 Electronic               0.000              0.000              1.377
 Translational            0.889              2.981             35.068
 Rotational               0.592              1.987             11.738
 Vibrational              6.121              0.292              0.049
                       Q            Log10(Q)             Ln(Q)
 Total Bot       0.342028D+05          4.534061         10.440062
 Total V=0       0.102719D+10          9.011652         20.750096
 Vib (Bot)       0.334009D-04         -4.476241        -10.306927
 Vib (V=0)       0.100311D+01          0.001349          0.003107
 Electronic      0.200000D+01          0.301030          0.693147
 Translational   0.378633D+07          6.578219         15.146908
 Rotational      0.135224D+03          2.131054          4.906934
 -------------------------------------------------------------------
 Center     Atomic                   Forces (Hartrees/Bohr)
 Number     Number              X              Y              Z
 -------------------------------------------------------------------
      1        1          -0.069322805   -0.000000000   -0.000000000
      2        1           0.077735759   -0.000000000    0.000000000
      3        9          -0.008412954    0.000000000    0.000000000
 -------------------------------------------------------------------
 Cartesian Forces:  Max     0.077735759 RMS     0.034831782

 GradGradGradGradGradGradGradGradGradGradGradGradGradGradGradGradGradGrad
 Berny optimization.
 Search for a local minimum.
 Step number   1 out of a maximum of    2
 All quantities printed in internal units (Hartrees-Bohrs-Radians)
 Second derivative matrix not updated -- analytic derivatives used.
 The second derivative matrix:
                          X1        Y1        Z1        X2        Y2
           X1           0.01160
           Y1          -0.00000   0.04150
           Z1           0.00000   0.00000   0.04150
           X2          -0.03887   0.00000  -0.00000   0.05381
           Y2           0.00000  -0.03984  -0.00000  -0.00000   0.04028
           Z2           0.00000  -0.00000  -0.03984   0.00000   0.00000
           X3           0.02727   0.00000  -0.00000  -0.01494   0.00000
           Y3           0.00000  -0.00166  -0.00000  -0.00000  -0.00044
           Z3          -0.00000  -0.00000  -0.00166   0.00000  -0.00000
                          Z2        X3        Y3        Z3
           Z2           0.04028
           X3           0.00000  -0.01233
           Y3          -0.00000  -0.00000   0.00211
           Z3          -0.00044   0.00000   0.00000   0.00211
 ITU=  0
     Eigenvalues ---   -0.02454   0.07718   0.07718   0.08211
 Eigenvalue     1 is  -2.45D-02 should be greater than     0.000000 Eigenvector:
                          X1        X3        X2        Y1        Y2
   1                    0.82942  -0.40480   0.38497   0.00000  -0.00000
                          Y3        Z1        Z2        Z3
   1                   -0.00000  -0.00000   0.00000   0.00000
 Quadratic step=1.581D+00 exceeds max=3.000D-01 adjusted using Lamda=-2.696D-01.
 Angle between NR and scaled steps=  22.65 degrees.
 Angle between quadratic step and forces=   3.74 degrees.
 Linear search not attempted -- first point.
 B after Tr=    -0.003619    0.000000    0.000000
         Rot=    0.966294   -0.257440   -0.000000   -0.000000 Ang= -29.84 deg.
 Variable       Old X    -DE/DX   Delta X   Delta X   Delta X     New X
                                 (Linear)    (Quad)   (Total)
    X1        0.00000  -0.06932   0.00000  -0.20391  -0.20753  -0.20753
    Y1        0.00000  -0.00000   0.00000  -0.00000  -0.00000  -0.00000
    Z1        0.00000  -0.00000   0.00000   0.00000  -0.00000  -0.00000
    X2       -1.88973   0.07774   0.00000   0.22020   0.21658  -1.67315
    Y2        0.00000  -0.00000   0.00000   0.00000   0.00000   0.00000
    Z2        0.00000   0.00000   0.00000  -0.00000   0.00000   0.00000
    X3        3.59048  -0.00841   0.00000  -0.00543  -0.00905   3.58143
    Y3        0.00000   0.00000   0.00000   0.00000   0.00000   0.00000
    Z3        0.00000   0.00000   0.00000  -0.00000   0.00000   0.00000
         Item               Value     Threshold  Converged?
 Maximum Force            0.077736     0.000450     NO 
 RMS     Force            0.034832     0.000300     NO 
 Maximum Displacement     0.216579     0.001800     NO 
 RMS     Displacement     0.100032     0.001200     NO 
 Predicted change in Energy=-2.795974D-02
 GradGradGradGradGradGradGradGradGradGradGradGradGradGradGradGradGradGrad


 ----------------------------------------------------------------------

 Electric dipole moment (input orientation):
 (Debye = 10**-18 statcoulomb cm , SI units = C m)
                  (au)            (Debye)         (10**-30 SI)
   Tot        0.387060D+00      0.983809D+00      0.328163D+01
   x         -0.387060D+00     -0.983809D+00     -0.328163D+01
   y          0.000000D+00      0.000000D+00      0.000000D+00
   z          0.000000D+00      0.000000D+00      0.000000D+00

 Dipole polarizability, Alpha (input orientation).
 (esu units = cm**3 , SI units = C**2 m**2 J**-1)
 Alpha(0;0):
               (au)            (10**-24 esu)      (10**-40 SI)
   iso        0.117235D+02      0.173725D+01      0.193295D+01
   aniso      0.285782D+02      0.423485D+01      0.471190D+01
   xx         0.307756D+02      0.456048D+01      0.507422D+01
   yx         0.000000D+00      0.000000D+00      0.000000D+00
   yy         0.219746D+01      0.325629D+00      0.362312D+00
   zx         0.000000D+00      0.000000D+00      0.000000D+00
   zy         0.000000D+00      0.000000D+00      0.000000D+00
   zz         0.219746D+01      0.325629D+00      0.362312D+00

 ----------------------------------------------------------------------

 Dipole orientation:
     1          0.00000000          0.00000000          0.00000000
     1         -0.00000000         -0.00000000          1.88972612
     9          0.00000000          0.00000000         -3.59047964

 Electric dipole moment (dipole orientation):
 (Debye = 10**-18 statcoulomb cm , SI units = C m)
                  (au)            (Debye)         (10**-30 SI)
   Tot        0.387060D+00      0.983809D+00      0.328163D+01
   x          0.000000D+00      0.000000D+00      0.000000D+00
   y          0.000000D+00      0.000000D+00      0.000000D+00
   z          0.387060D+00      0.983809D+00      0.328163D+01

 Dipole polarizability, Alpha (dipole orientation).
 (esu units = cm**3 , SI units = C**2 m**2 J**-1)
 Alpha(0;0):
               (au)            (10**-24 esu)      (10**-40 SI)
   iso        0.117235D+02      0.173725D+01      0.193295D+01
   aniso      0.285782D+02      0.423485D+01      0.471190D+01
   xx         0.219746D+01      0.325629D+00      0.362312D+00
   yx         0.000000D+00      0.000000D+00      0.000000D+00
   yy         0.219746D+01      0.325629D+00      0.362312D+00
   zx         0.000000D+00      0.000000D+00      0.000000D+00
   zy         0.000000D+00      0.000000D+00      0.000000D+00
   zz         0.307756D+02      0.456048D+01      0.507422D+01

 ----------------------------------------------------------------------
 Unable to Open any file for archive entry.
 1\1\GINC-DESKTOP-B3RIHJD\Freq\UB3LYP\6-311G(d,p)\F1H2(2)\GARYX\22-Aug-
 2025\0\\# sp b3lyp/6-311g** Force nosymm scf=(qc)\\Title Card Required
 \\0,2\H,0.,0.,0.\H,-1.,0.,0.\F,1.9,0.,0.\\Version=ES64L-G16RevC.01\HF=
 -100.9120224\S2=0.756462\S2-1=0.\S2A=0.75001\RMSD=4.906e-11\RMSF=3.483
 e-02\ZeroPoint=0.0097346\Thermal=0.0121152\ETot=-100.8999072\HTot=-100
 .898963\GTot=-100.9218798\Dipole=-0.3870604,0.,0.\DipoleDeriv=-0.79348
 92,0.,0.,0.,0.034077,0.,0.,0.,0.034077,0.4263931,0.,0.,0.,0.0482437,0.
 ,0.,0.,0.0482437,0.3670961,0.,0.,0.,-0.0823206,0.,0.,0.,-0.0823206\Pol
 ar=30.7756272,0.,2.1974558,0.,0.,2.1974558\Quadrupole=0.2544934,-0.127
 2467,-0.1272467,0.,0.,0.\PG=C*V [C*(H1H1F1)]\NImag=1\\0.01160011,0.,0.
 04149977,0.,0.,0.04149977,-0.03886946,0.,0.,0.05381340,0.,-0.03983591,
 0.,0.,0.04027742,0.,0.,-0.03983591,0.,0.,0.04027742,0.02726936,0.,0.,-
 0.01494394,0.,0.,-0.01232542,0.,-0.00166386,0.,0.,-0.00044151,0.,0.,0.
 00210537,0.,0.,-0.00166386,0.,0.,-0.00044151,0.,0.,0.00210537\\0.06932
 281,0.,0.,-0.07773576,0.,0.,0.00841295,0.,0.\\\@
 The archive entry for this job was punched.


 OLD HORSE! OLD HORSE! WHAT BROUGHT YOU HERE?
 FROM SACARAP' TO PORTLAND PIER
 I'VE CARTED STONE THIS MANY A YEAR;
 TILL, KILLED BY BLOWS AND SORE ABUSE,
 THEY SALTED ME DOWN FOR SAILORS' USE.
 THE SAILORS THEY DO ME DESPISE;
 THEY TURN ME OVER AND DAMN MY EYES;
 CUT OFF MY MEAT, AND SCRAPE MY BONES,
 AND PITCH ME OVER TO DAVY JONES.

    SAILORS' COMPLAINT ABOUT THE BEEF
    SERVED ON SHIPBOARD, CIRCA 1835.
 Job cpu time:       0 days  0 hours  0 minutes 15.6 seconds.
 Elapsed time:       0 days  0 hours  0 minutes  2.2 seconds.
 File lengths (MBytes):  RWF=      6 Int=      0 D2E=      0 Chk=      1 Scr=      1
 Normal termination of Gaussian 16 at Fri Aug 22 16:49:05 2025.
