 Entering Gaussian System, Link 0=g16
 Initial command:
 /home/garyx/gaussian/g16/l1.exe "/tmp/gaussian_scratch/Gau-791492.inp" -scrdir="/tmp/gaussian_scratch/"
 Entering Link 1 = /home/garyx/gaussian/g16/l1.exe PID=    791494.
  
 Copyright (c) 1988-2019, Gaussian, Inc.  All Rights Reserved.
  
 This is part of the Gaussian(R) 16 program.  It is based on
 the Gaussian(R) 09 system (copyright 2009, Gaussian, Inc.),
 the Gaussian(R) 03 system (copyright 2003, Gaussian, Inc.),
 the Gaussian(R) 98 system (copyright 1998, Gaussian, Inc.),
 the Gaussian(R) 94 system (copyright 1995, Gaussian, Inc.),
 the Gaussian 92(TM) system (copyright 1992, Gaussian, Inc.),
 the Gaussian 90(TM) system (copyright 1990, Gaussian, Inc.),
 the Gaussian 88(TM) system (copyright 1988, Gaussian, Inc.),
 the Gaussian 86(TM) system (copyright 1986, Carnegie Mellon
 University), and the Gaussian 82(TM) system (copyright 1983,
 Carnegie Mellon University). Gaussian is a federally registered
 trademark of Gaussian, Inc.
  
 This software contains proprietary and confidential information,
 including trade secrets, belonging to Gaussian, Inc.
  
 This software is provided under written license and may be
 used, copied, transmitted, or stored only in accord with that
 written license.
  
 The following legend is applicable only to US Government
 contracts under FAR:
  
                    RESTRICTED RIGHTS LEGEND
  
 Use, reproduction and disclosure by the US Government is
 subject to restrictions as set forth in subparagraphs (a)
 and (c) of the Commercial Computer Software - Restricted
 Rights clause in FAR 52.227-19.
  
 Gaussian, Inc.
 340 Quinnipiac St., Bldg. 40, Wallingford CT 06492
  
  
 ---------------------------------------------------------------
 Warning -- This program may not be used in any manner that
 competes with the business of Gaussian, Inc. or will provide
 assistance to any competitor of Gaussian, Inc.  The licensee
 of this program is prohibited from giving any competitor of
 Gaussian, Inc. access to this program.  By using this program,
 the user acknowledges that Gaussian, Inc. is engaged in the
 business of creating and licensing software in the field of
 computational chemistry and represents and warrants to the
 licensee that it is not a competitor of Gaussian, Inc. and that
 it will not use this program in any manner prohibited above.
 ---------------------------------------------------------------
  

 Cite this work as:
 Gaussian 16, Revision C.01,
 M. J. Frisch, G. W. Trucks, H. B. Schlegel, G. E. Scuseria, 
 M. A. Robb, J. R. Cheeseman, G. Scalmani, V. Barone, 
 G. A. Petersson, H. Nakatsuji, X. Li, M. Caricato, A. V. Marenich, 
 J. Bloino, B. G. Janesko, R. Gomperts, B. Mennucci, H. P. Hratchian, 
 J. V. Ortiz, A. F. Izmaylov, J. L. Sonnenberg, D. Williams-Young, 
 F. Ding, F. Lipparini, F. Egidi, J. Goings, B. Peng, A. Petrone, 
 T. Henderson, D. Ranasinghe, V. G. Zakrzewski, J. Gao, N. Rega, 
 G. Zheng, W. Liang, M. Hada, M. Ehara, K. Toyota, R. Fukuda, 
 J. Hasegawa, M. Ishida, T. Nakajima, Y. Honda, O. Kitao, H. Nakai, 
 T. Vreven, K. Throssell, J. A. Montgomery, Jr., J. E. Peralta, 
 F. Ogliaro, M. J. Bearpark, J. J. Heyd, E. N. Brothers, K. N. Kudin, 
 V. N. Staroverov, T. A. Keith, R. Kobayashi, J. Normand, 
 K. Raghavachari, A. P. Rendell, J. C. Burant, S. S. Iyengar, 
 J. Tomasi, M. Cossi, J. M. Millam, M. Klene, C. Adamo, R. Cammi, 
 J. W. Ochterski, R. L. Martin, K. Morokuma, O. Farkas, 
 J. B. Foresman, and D. J. Fox, Gaussian, Inc., Wallingford CT, 2019.
 
 ******************************************
 Gaussian 16:  ES64L-G16RevC.01  3-Jul-2019
                22-Aug-2025 
 ******************************************
 %mem=10GB
 %nprocs=8
 Will use up to    8 processors via shared memory.
 -----------------------------------------
 # sp b3lyp/6-311g** Force nosymm scf=(qc)
 -----------------------------------------
 1/10=4,30=1,38=1/1,3;
 2/12=2,15=1,17=6,18=5,40=1/2;
 3/5=4,6=6,7=101,11=2,25=1,30=1,71=2,74=-5,140=1/1,2,3;
 4//1;
 5/5=2,8=3,38=5,98=1/8;
 8/6=4,10=90,11=11/1;
 11/6=1,8=1,9=11,15=111,16=1,31=1/1,2,10;
 10/6=1,31=1/2;
 6/7=2,8=2,9=2,10=2,28=1/1;
 7/8=1,10=1,25=1,30=1/1,2,3,16;
 1/10=4,30=1/3;
 99//99;
 -------------------
 Title Card Required
 -------------------
 Symbolic Z-matrix:
 Charge =  0 Multiplicity = 2
 H                     0.        0.        0. 
 H                    -1.65      0.        0. 
 F                     3.05      0.        0. 
 

 GradGradGradGradGradGradGradGradGradGradGradGradGradGradGradGradGradGrad
 Berny optimization.
 Initialization pass.
 Trust Radius=3.00D-01 FncErr=1.00D-07 GrdErr=1.00D-07 EigMax=2.50D+02 EigMin=1.00D-04
 Number of steps in this run=      2 maximum allowed number of steps=      2.
 GradGradGradGradGradGradGradGradGradGradGradGradGradGradGradGradGradGrad

                          Input orientation:                          
 ---------------------------------------------------------------------
 Center     Atomic      Atomic             Coordinates (Angstroms)
 Number     Number       Type             X           Y           Z
 ---------------------------------------------------------------------
      1          1           0        0.000000    0.000000    0.000000
      2          1           0       -1.650000    0.000000    0.000000
      3          9           0        3.050000    0.000000    0.000000
 ---------------------------------------------------------------------
                    Distance matrix (angstroms):
                    1          2          3
     1  H    0.000000
     2  H    1.650000   0.000000
     3  F    3.050000   4.700000   0.000000
 Symmetry turned off by external request.
 Stoichiometry    FH2(2)
 Framework group  C*V[C*(HHF)]
 Deg. of freedom     2
 Full point group                 C*V     NOp   4
 Rotational constants (GHZ):           0.0000000          17.5875550          17.5875550
 Standard basis: 6-311G(d,p) (5D, 7F)
    30 basis functions,    48 primitive gaussians,    31 cartesian basis functions
     6 alpha electrons        5 beta electrons
       nuclear repulsion energy         2.8955380487 Hartrees.
 NAtoms=    3 NActive=    3 NUniq=    3 SFac= 1.00D+00 NAtFMM=   60 NAOKFM=F Big=F
 Integral buffers will be    131072 words long.
 Raffenetti 2 integral format.
 Two-electron integral symmetry is turned off.
 One-electron integrals computed using PRISM.
 NBasis=    30 RedAO= T EigKep=  7.31D-02  NBF=    30
 NBsUse=    30 1.00D-06 EigRej= -1.00D+00 NBFU=    30
 ExpMin= 1.03D-01 ExpMax= 1.14D+04 ExpMxC= 1.72D+03 IAcc=3 IRadAn=         5 AccDes= 0.00D+00
 Harris functional with IExCor=  402 and IRadAn=       5 diagonalized for initial guess.
 HarFok:  IExCor=  402 AccDes= 0.00D+00 IRadAn=         5 IDoV= 1 UseB2=F ITyADJ=14
 ICtDFT=  3500011 ScaDFX=  1.000000  1.000000  1.000000  1.000000
 FoFCou: FMM=F IPFlag=           0 FMFlag=      100000 FMFlg1=           0
         NFxFlg=           0 DoJE=T BraDBF=F KetDBF=T FulRan=T
         wScrn=  0.000000 ICntrl=       500 IOpCl=  0 I1Cent=   200000004 NGrid=           0
         NMat0=    1 NMatS0=      1 NMatT0=    0 NMatD0=    1 NMtDS0=    0 NMtDT0=    0
 Symmetry not used in FoFCou.
 Initial guess <Sx>= 0.0000 <Sy>= 0.0000 <Sz>= 0.5000 <S**2>= 0.7500 S= 0.5000
 Keep R1 and R2 ints in memory in canonical form, NReq=7127049.
 Gradient too large for Newton-Raphson -- use scaled steepest descent instead.
  Beta Gap=    -0.618 HL deriv= 6.21D-17 Rot set to   9.25D-01
     Minimum is close to point  3 DX=  3.53D-02 DF= -1.60D-03 DXR=  8.10D-02 DFR=  9.42D-03 which will be used.
 Gradient too large for Newton-Raphson -- use scaled steepest descent instead.
     Minimum is close to point  5 DX=  1.13D-01 DF= -2.84D-04 DXR=  7.97D-02 DFR=  6.33D-03 which will be used.
 Gradient too large for Newton-Raphson -- use scaled steepest descent instead.
     Accept linear search using points  1 and  2.
 Gradient too large for Newton-Raphson -- use scaled steepest descent instead.
 Gradient too large for Newton-Raphson -- use scaled steepest descent instead.
 Gradient too large for Newton-Raphson -- use scaled steepest descent instead.
     Accept linear search using points  1 and  2.
 Gradient too large for Newton-Raphson -- use scaled steepest descent instead.
     Accept linear search using points  4 and  5.
 Gradient too large for Newton-Raphson -- use scaled steepest descent instead.
     Accept linear search using points  1 and  2.
 Gradient too large for Newton-Raphson -- use scaled steepest descent instead.
 Gradient too large for Newton-Raphson -- use scaled steepest descent instead.
     Accept linear search using points  1 and  2.
 LinEq1:  Iter=  0 NonCon=     1 RMS=2.51D-03 Max=3.12D-02 NDo=     1
 AX will form     1 AO Fock derivatives at one time.
 LinEq1:  Iter=  1 NonCon=     1 RMS=1.91D-03 Max=2.92D-02 NDo=     1
 LinEq1:  Iter=  2 NonCon=     1 RMS=1.55D-03 Max=1.81D-02 NDo=     1
 LinEq1:  Iter=  3 NonCon=     1 RMS=2.57D-04 Max=1.64D-03 NDo=     1
 LinEq1:  Iter=  4 NonCon=     1 RMS=1.41D-04 Max=1.03D-03 NDo=     1
 LinEq1:  Iter=  5 NonCon=     1 RMS=2.18D-05 Max=2.16D-04 NDo=     1
 LinEq1:  Iter=  6 NonCon=     1 RMS=1.01D-05 Max=1.30D-04 NDo=     1
 LinEq1:  Iter=  7 NonCon=     1 RMS=7.61D-07 Max=5.89D-06 NDo=     1
 LinEq1:  Iter=  8 NonCon=     1 RMS=1.93D-07 Max=2.46D-06 NDo=     1
 LinEq1:  Iter=  9 NonCon=     1 RMS=2.42D-08 Max=1.27D-07 NDo=     1
 LinEq1:  Iter= 10 NonCon=     1 RMS=2.51D-09 Max=1.14D-08 NDo=     1
 LinEq1:  Iter= 11 NonCon=     0 RMS=4.02D-10 Max=1.80D-09 NDo=     1
 Linear equations converged to 1.640D-09 1.640D-08 after    11 iterations.
 Incorrect curvature in search direction -- initial direction reversed.
 Gradient too large for Newton-Raphson -- use scaled steepest descent instead.
     Minimum is close to point  2 DX= -3.42D-03 DF= -1.97D-09 DXR=  3.81D-03 DFR=  1.45D-05 which will be used.
 LinEq1:  Iter=  0 NonCon=     1 RMS=1.68D-03 Max=2.45D-02 NDo=     1
 LinEq1:  Iter=  1 NonCon=     1 RMS=1.04D-03 Max=1.12D-02 NDo=     1
 LinEq1:  Iter=  2 NonCon=     1 RMS=8.05D-05 Max=8.26D-04 NDo=     1
 LinEq1:  Iter=  3 NonCon=     1 RMS=5.78D-05 Max=3.91D-04 NDo=     1
 LinEq1:  Iter=  4 NonCon=     1 RMS=1.62D-05 Max=1.14D-04 NDo=     1
 LinEq1:  Iter=  5 NonCon=     1 RMS=6.99D-06 Max=9.34D-05 NDo=     1
 LinEq1:  Iter=  6 NonCon=     1 RMS=1.21D-06 Max=8.43D-06 NDo=     1
 LinEq1:  Iter=  7 NonCon=     1 RMS=1.81D-07 Max=1.52D-06 NDo=     1
 LinEq1:  Iter=  8 NonCon=     1 RMS=4.09D-08 Max=3.66D-07 NDo=     1
 LinEq1:  Iter=  9 NonCon=     1 RMS=4.67D-09 Max=3.16D-08 NDo=     1
 LinEq1:  Iter= 10 NonCon=     0 RMS=4.60D-10 Max=3.63D-09 NDo=     1
 Linear equations converged to 1.640D-09 1.640D-08 after    10 iterations.
     Minimum is close to point  2 DX=  2.95D-02 DF= -7.71D-08 DXR=  2.87D-02 DFR=  8.24D-04 which will be used.
 LinEq1:  Iter=  0 NonCon=     1 RMS=5.79D-05 Max=8.07D-04 NDo=     1
 LinEq1:  Iter=  1 NonCon=     1 RMS=3.37D-05 Max=2.58D-04 NDo=     1
 LinEq1:  Iter=  2 NonCon=     1 RMS=8.78D-06 Max=6.61D-05 NDo=     1
 LinEq1:  Iter=  3 NonCon=     1 RMS=5.21D-06 Max=5.47D-05 NDo=     1
 LinEq1:  Iter=  4 NonCon=     1 RMS=4.12D-06 Max=3.87D-05 NDo=     1
 LinEq1:  Iter=  5 NonCon=     1 RMS=9.57D-07 Max=7.85D-06 NDo=     1
 LinEq1:  Iter=  6 NonCon=     1 RMS=3.47D-07 Max=2.60D-06 NDo=     1
 LinEq1:  Iter=  7 NonCon=     1 RMS=3.33D-08 Max=2.16D-07 NDo=     1
 LinEq1:  Iter=  8 NonCon=     1 RMS=4.49D-09 Max=4.67D-08 NDo=     1
 LinEq1:  Iter=  9 NonCon=     0 RMS=9.35D-10 Max=6.56D-09 NDo=     1
 Linear equations converged to 1.640D-09 1.640D-08 after     9 iterations.
     Minimum is close to point  2 DX=  3.90D-02 DF= -2.91D-10 DXR=  3.75D-02 DFR=  1.41D-03 which will be used.
 LinEq1:  Iter=  0 NonCon=     1 RMS=3.95D-07 Max=2.66D-06 NDo=     1
 LinEq1:  Iter=  1 NonCon=     1 RMS=1.52D-07 Max=1.60D-06 NDo=     1
 LinEq1:  Iter=  2 NonCon=     1 RMS=8.18D-08 Max=7.23D-07 NDo=     1
 LinEq1:  Iter=  3 NonCon=     1 RMS=4.15D-08 Max=2.39D-07 NDo=     1
 LinEq1:  Iter=  4 NonCon=     1 RMS=1.51D-08 Max=1.53D-07 NDo=     1
 LinEq1:  Iter=  5 NonCon=     1 RMS=5.06D-09 Max=4.76D-08 NDo=     1
 LinEq1:  Iter=  6 NonCon=     1 RMS=2.53D-09 Max=1.81D-08 NDo=     1
 LinEq1:  Iter=  7 NonCon=     1 RMS=1.06D-09 Max=1.25D-08 NDo=     1
 LinEq1:  Iter=  8 NonCon=     1 RMS=2.98D-10 Max=1.56D-09 NDo=     1
 LinEq1:  Iter=  9 NonCon=     0 RMS=7.16D-11 Max=5.50D-10 NDo=     1
 Linear equations converged to 1.814D-10 1.814D-09 after     9 iterations.
 Incorrect curvature in search direction -- initial direction reversed.
     Note:  rotation exceeds Pi/2.
     Note:  rotation exceeds Pi/2.
     Note:  rotation exceeds Pi/2.
     Minimum is close to point  9 DX=  0.00D+00 DF=  0.00D+00 DXR=  0.00D+00 DFR=  0.00D+00 which will be used.
 LinEq1:  Iter=  0 NonCon=     1 RMS=1.00D-04 Max=8.18D-04 NDo=     1
 LinEq1:  Iter=  1 NonCon=     1 RMS=4.45D-05 Max=4.39D-04 NDo=     1
 LinEq1:  Iter=  2 NonCon=     1 RMS=2.17D-05 Max=1.80D-04 NDo=     1
 LinEq1:  Iter=  3 NonCon=     1 RMS=1.49D-05 Max=1.44D-04 NDo=     1
 LinEq1:  Iter=  4 NonCon=     1 RMS=8.24D-06 Max=7.29D-05 NDo=     1
 LinEq1:  Iter=  5 NonCon=     1 RMS=2.25D-06 Max=1.42D-05 NDo=     1
 LinEq1:  Iter=  6 NonCon=     1 RMS=8.60D-07 Max=6.99D-06 NDo=     1
 LinEq1:  Iter=  7 NonCon=     1 RMS=3.34D-07 Max=2.77D-06 NDo=     1
 LinEq1:  Iter=  8 NonCon=     1 RMS=8.74D-08 Max=1.01D-06 NDo=     1
 LinEq1:  Iter=  9 NonCon=     1 RMS=1.46D-08 Max=1.08D-07 NDo=     1
 LinEq1:  Iter= 10 NonCon=     1 RMS=2.42D-09 Max=2.23D-08 NDo=     1
 LinEq1:  Iter= 11 NonCon=     0 RMS=1.00D-09 Max=1.32D-08 NDo=     1
 Linear equations converged to 1.640D-09 1.640D-08 after    11 iterations.
 Incorrect curvature in search direction -- initial direction reversed.
     Minimum is close to point  2 DX= -2.77D-02 DF= -4.09D-09 DXR=  2.85D-02 DFR=  8.15D-04 which will be used.
 LinEq1:  Iter=  0 NonCon=     1 RMS=2.13D-04 Max=1.78D-03 NDo=     1
 LinEq1:  Iter=  1 NonCon=     1 RMS=9.91D-05 Max=1.08D-03 NDo=     1
 LinEq1:  Iter=  2 NonCon=     1 RMS=6.04D-05 Max=5.78D-04 NDo=     1
 LinEq1:  Iter=  3 NonCon=     1 RMS=3.65D-05 Max=2.84D-04 NDo=     1
 LinEq1:  Iter=  4 NonCon=     1 RMS=1.81D-05 Max=1.57D-04 NDo=     1
 LinEq1:  Iter=  5 NonCon=     1 RMS=7.08D-06 Max=4.45D-05 NDo=     1
 LinEq1:  Iter=  6 NonCon=     1 RMS=3.12D-06 Max=2.47D-05 NDo=     1
 LinEq1:  Iter=  7 NonCon=     1 RMS=8.01D-07 Max=7.05D-06 NDo=     1
 LinEq1:  Iter=  8 NonCon=     1 RMS=1.13D-07 Max=7.00D-07 NDo=     1
 LinEq1:  Iter=  9 NonCon=     1 RMS=1.46D-08 Max=9.10D-08 NDo=     1
 LinEq1:  Iter= 10 NonCon=     1 RMS=4.92D-09 Max=6.84D-08 NDo=     1
 LinEq1:  Iter= 11 NonCon=     0 RMS=1.35D-09 Max=1.08D-08 NDo=     1
 Linear equations converged to 1.640D-09 1.640D-08 after    11 iterations.
 Incorrect curvature in search direction -- initial direction reversed.
 Gradient too large for Newton-Raphson -- use scaled steepest descent instead.
 LinEq1:  Iter=  0 NonCon=     1 RMS=1.59D-04 Max=1.85D-03 NDo=     1
 LinEq1:  Iter=  1 NonCon=     1 RMS=1.20D-04 Max=1.44D-03 NDo=     1
 LinEq1:  Iter=  2 NonCon=     1 RMS=6.15D-05 Max=4.75D-04 NDo=     1
 LinEq1:  Iter=  3 NonCon=     1 RMS=3.18D-05 Max=2.89D-04 NDo=     1
 LinEq1:  Iter=  4 NonCon=     1 RMS=1.54D-05 Max=1.15D-04 NDo=     1
 LinEq1:  Iter=  5 NonCon=     1 RMS=7.09D-06 Max=5.62D-05 NDo=     1
 LinEq1:  Iter=  6 NonCon=     1 RMS=1.60D-06 Max=1.12D-05 NDo=     1
 LinEq1:  Iter=  7 NonCon=     1 RMS=4.51D-07 Max=4.07D-06 NDo=     1
 LinEq1:  Iter=  8 NonCon=     1 RMS=5.35D-08 Max=3.62D-07 NDo=     1
 LinEq1:  Iter=  9 NonCon=     1 RMS=7.08D-09 Max=6.44D-08 NDo=     1
 LinEq1:  Iter= 10 NonCon=     1 RMS=1.85D-09 Max=2.72D-08 NDo=     1
 LinEq1:  Iter= 11 NonCon=     0 RMS=5.32D-10 Max=3.00D-09 NDo=     1
 Linear equations converged to 1.640D-09 1.640D-08 after    11 iterations.
 Incorrect curvature in search direction -- initial direction reversed.
 LinEq1:  Iter=  0 NonCon=     1 RMS=3.09D-04 Max=2.87D-03 NDo=     1
 LinEq1:  Iter=  1 NonCon=     1 RMS=1.41D-04 Max=1.58D-03 NDo=     1
 LinEq1:  Iter=  2 NonCon=     1 RMS=1.11D-04 Max=1.18D-03 NDo=     1
 LinEq1:  Iter=  3 NonCon=     1 RMS=4.25D-05 Max=3.48D-04 NDo=     1
 LinEq1:  Iter=  4 NonCon=     1 RMS=2.36D-05 Max=1.88D-04 NDo=     1
 LinEq1:  Iter=  5 NonCon=     1 RMS=5.30D-06 Max=3.09D-05 NDo=     1
 LinEq1:  Iter=  6 NonCon=     1 RMS=3.43D-06 Max=3.07D-05 NDo=     1
 LinEq1:  Iter=  7 NonCon=     1 RMS=9.91D-07 Max=8.95D-06 NDo=     1
 LinEq1:  Iter=  8 NonCon=     1 RMS=1.92D-07 Max=9.45D-07 NDo=     1
 LinEq1:  Iter=  9 NonCon=     1 RMS=2.45D-08 Max=1.96D-07 NDo=     1
 LinEq1:  Iter= 10 NonCon=     1 RMS=3.02D-09 Max=2.18D-08 NDo=     1
 LinEq1:  Iter= 11 NonCon=     0 RMS=6.31D-10 Max=9.34D-09 NDo=     1
 Linear equations converged to 1.640D-09 1.640D-08 after    11 iterations.
 Gradient too large for Newton-Raphson -- use scaled steepest descent instead.
     Minimum is close to point  2 DX=  1.11D-01 DF= -3.79D-07 DXR=  9.96D-02 DFR=  1.00D-02 which will be used.
 LinEq1:  Iter=  0 NonCon=     1 RMS=1.34D-04 Max=1.52D-03 NDo=     1
 LinEq1:  Iter=  1 NonCon=     1 RMS=6.52D-05 Max=6.06D-04 NDo=     1
 LinEq1:  Iter=  2 NonCon=     1 RMS=4.04D-05 Max=4.71D-04 NDo=     1
 LinEq1:  Iter=  3 NonCon=     1 RMS=1.73D-05 Max=1.69D-04 NDo=     1
 LinEq1:  Iter=  4 NonCon=     1 RMS=7.79D-06 Max=8.02D-05 NDo=     1
 LinEq1:  Iter=  5 NonCon=     1 RMS=1.98D-06 Max=1.70D-05 NDo=     1
 LinEq1:  Iter=  6 NonCon=     1 RMS=7.38D-07 Max=7.20D-06 NDo=     1
 LinEq1:  Iter=  7 NonCon=     1 RMS=1.17D-07 Max=6.07D-07 NDo=     1
 LinEq1:  Iter=  8 NonCon=     1 RMS=2.04D-08 Max=1.26D-07 NDo=     1
 LinEq1:  Iter=  9 NonCon=     1 RMS=1.68D-09 Max=1.08D-08 NDo=     1
 LinEq1:  Iter= 10 NonCon=     0 RMS=2.39D-10 Max=2.92D-09 NDo=     1
 Linear equations converged to 1.640D-09 1.640D-08 after    10 iterations.
 LinEq1:  Iter=  0 NonCon=     1 RMS=1.42D-04 Max=9.90D-04 NDo=     1
 LinEq1:  Iter=  1 NonCon=     1 RMS=6.97D-05 Max=8.25D-04 NDo=     1
 LinEq1:  Iter=  2 NonCon=     1 RMS=3.42D-05 Max=3.96D-04 NDo=     1
 LinEq1:  Iter=  3 NonCon=     1 RMS=1.71D-05 Max=1.94D-04 NDo=     1
 LinEq1:  Iter=  4 NonCon=     1 RMS=6.95D-06 Max=6.88D-05 NDo=     1
 LinEq1:  Iter=  5 NonCon=     1 RMS=2.18D-06 Max=1.75D-05 NDo=     1
 LinEq1:  Iter=  6 NonCon=     1 RMS=7.34D-07 Max=7.03D-06 NDo=     1
 LinEq1:  Iter=  7 NonCon=     1 RMS=1.97D-07 Max=1.35D-06 NDo=     1
 LinEq1:  Iter=  8 NonCon=     1 RMS=2.90D-08 Max=2.21D-07 NDo=     1
 LinEq1:  Iter=  9 NonCon=     1 RMS=4.52D-09 Max=3.65D-08 NDo=     1
 LinEq1:  Iter= 10 NonCon=     0 RMS=4.54D-10 Max=3.45D-09 NDo=     1
 Linear equations converged to 1.640D-09 1.640D-08 after    10 iterations.
     Accept linear search using points  1 and  2.
 LinEq1:  Iter=  0 NonCon=     1 RMS=1.75D-04 Max=1.49D-03 NDo=     1
 LinEq1:  Iter=  1 NonCon=     1 RMS=6.37D-05 Max=6.93D-04 NDo=     1
 LinEq1:  Iter=  2 NonCon=     1 RMS=7.91D-05 Max=8.49D-04 NDo=     1
 LinEq1:  Iter=  3 NonCon=     1 RMS=1.96D-05 Max=1.77D-04 NDo=     1
 LinEq1:  Iter=  4 NonCon=     1 RMS=3.92D-06 Max=4.61D-05 NDo=     1
 LinEq1:  Iter=  5 NonCon=     1 RMS=2.64D-06 Max=3.67D-05 NDo=     1
 LinEq1:  Iter=  6 NonCon=     1 RMS=1.07D-06 Max=8.55D-06 NDo=     1
 LinEq1:  Iter=  7 NonCon=     1 RMS=2.89D-07 Max=2.82D-06 NDo=     1
 LinEq1:  Iter=  8 NonCon=     1 RMS=5.32D-08 Max=4.58D-07 NDo=     1
 LinEq1:  Iter=  9 NonCon=     1 RMS=6.65D-09 Max=7.15D-08 NDo=     1
 LinEq1:  Iter= 10 NonCon=     0 RMS=6.35D-10 Max=4.46D-09 NDo=     1
 Linear equations converged to 1.640D-09 1.640D-08 after    10 iterations.
 LinEq1:  Iter=  0 NonCon=     1 RMS=1.06D-04 Max=8.52D-04 NDo=     1
 LinEq1:  Iter=  1 NonCon=     1 RMS=3.68D-05 Max=3.96D-04 NDo=     1
 LinEq1:  Iter=  2 NonCon=     1 RMS=2.60D-05 Max=1.84D-04 NDo=     1
 LinEq1:  Iter=  3 NonCon=     1 RMS=1.11D-05 Max=1.12D-04 NDo=     1
 LinEq1:  Iter=  4 NonCon=     1 RMS=2.17D-06 Max=2.00D-05 NDo=     1
 LinEq1:  Iter=  5 NonCon=     1 RMS=7.65D-07 Max=6.86D-06 NDo=     1
 LinEq1:  Iter=  6 NonCon=     1 RMS=2.26D-07 Max=1.32D-06 NDo=     1
 LinEq1:  Iter=  7 NonCon=     1 RMS=1.42D-07 Max=1.17D-06 NDo=     1
 LinEq1:  Iter=  8 NonCon=     1 RMS=1.70D-08 Max=1.32D-07 NDo=     1
 LinEq1:  Iter=  9 NonCon=     1 RMS=1.93D-09 Max=1.42D-08 NDo=     1
 LinEq1:  Iter= 10 NonCon=     0 RMS=3.46D-10 Max=1.89D-09 NDo=     1
 Linear equations converged to 1.640D-09 1.640D-08 after    10 iterations.
     Accept linear search using points  2 and  3.
 LinEq1:  Iter=  0 NonCon=     1 RMS=2.46D-05 Max=1.66D-04 NDo=     1
 LinEq1:  Iter=  1 NonCon=     1 RMS=8.49D-06 Max=8.34D-05 NDo=     1
 LinEq1:  Iter=  2 NonCon=     1 RMS=6.86D-06 Max=8.29D-05 NDo=     1
 LinEq1:  Iter=  3 NonCon=     1 RMS=1.62D-06 Max=1.34D-05 NDo=     1
 LinEq1:  Iter=  4 NonCon=     1 RMS=6.01D-07 Max=7.74D-06 NDo=     1
 LinEq1:  Iter=  5 NonCon=     1 RMS=4.76D-07 Max=6.81D-06 NDo=     1
 LinEq1:  Iter=  6 NonCon=     1 RMS=1.33D-07 Max=1.02D-06 NDo=     1
 LinEq1:  Iter=  7 NonCon=     1 RMS=3.90D-08 Max=3.72D-07 NDo=     1
 LinEq1:  Iter=  8 NonCon=     1 RMS=4.34D-09 Max=3.33D-08 NDo=     1
 LinEq1:  Iter=  9 NonCon=     0 RMS=6.68D-10 Max=4.13D-09 NDo=     1
 Linear equations converged to 1.640D-09 1.640D-08 after     9 iterations.
     Minimum is close to point  2 DX=  7.84D-02 DF= -3.03D-09 DXR=  7.27D-02 DFR=  5.32D-03 which will be used.
 LinEq1:  Iter=  0 NonCon=     1 RMS=1.48D-06 Max=1.14D-05 NDo=     1
 LinEq1:  Iter=  1 NonCon=     1 RMS=6.85D-07 Max=5.92D-06 NDo=     1
 LinEq1:  Iter=  2 NonCon=     1 RMS=5.94D-07 Max=6.64D-06 NDo=     1
 LinEq1:  Iter=  3 NonCon=     1 RMS=2.23D-07 Max=2.25D-06 NDo=     1
 LinEq1:  Iter=  4 NonCon=     1 RMS=4.13D-08 Max=2.96D-07 NDo=     1
 LinEq1:  Iter=  5 NonCon=     1 RMS=1.45D-08 Max=1.97D-07 NDo=     1
 LinEq1:  Iter=  6 NonCon=     1 RMS=9.88D-09 Max=1.04D-07 NDo=     1
 LinEq1:  Iter=  7 NonCon=     1 RMS=2.99D-09 Max=2.16D-08 NDo=     1
 LinEq1:  Iter=  8 NonCon=     1 RMS=6.51D-10 Max=6.20D-09 NDo=     1
 LinEq1:  Iter=  9 NonCon=     0 RMS=9.05D-11 Max=8.36D-10 NDo=     1
 Linear equations converged to 6.315D-10 6.315D-09 after     9 iterations.
 LinEq1:  Iter=  0 NonCon=     1 RMS=4.67D-08 Max=3.83D-07 NDo=     1
 LinEq1:  Iter=  1 NonCon=     1 RMS=1.60D-08 Max=1.53D-07 NDo=     1
 LinEq1:  Iter=  2 NonCon=     1 RMS=1.25D-08 Max=1.45D-07 NDo=     1
 LinEq1:  Iter=  3 NonCon=     1 RMS=6.36D-09 Max=5.44D-08 NDo=     1
 LinEq1:  Iter=  4 NonCon=     1 RMS=2.34D-09 Max=2.25D-08 NDo=     1
 LinEq1:  Iter=  5 NonCon=     1 RMS=7.40D-10 Max=6.48D-09 NDo=     1
 LinEq1:  Iter=  6 NonCon=     1 RMS=3.25D-10 Max=3.67D-09 NDo=     1
 LinEq1:  Iter=  7 NonCon=     1 RMS=1.85D-10 Max=1.32D-09 NDo=     1
 LinEq1:  Iter=  8 NonCon=     1 RMS=3.64D-11 Max=2.51D-10 NDo=     1
 LinEq1:  Iter=  9 NonCon=     0 RMS=4.26D-12 Max=4.06D-11 NDo=     1
 Linear equations converged to 2.226D-11 2.226D-10 after     9 iterations.
 SCF Done:  E(UB3LYP) =  -100.801085853     a.u. after   29 cycles
            Convg  =    0.9931D-07                   240 Fock formations.
              S**2 =  1.0166                  -V/T =  2.0034
 <Sx>= 0.0000 <Sy>= 0.0000 <Sz>= 0.5000 <S**2>= 1.0166 S= 0.6254
 <L.S>=  0.00000000000    
 Annihilation of the first spin contaminant:
 S**2 before annihilation     1.0166,   after     0.7506
 DoSCS=F DFT=T ScalE2(SS,OS)=  1.000000  1.000000
 Range of M.O.s used for correlation:     1    30
 NBasis=    30 NAE=     6 NBE=     5 NFC=     0 NFV=     0
 NROrb=     30 NOA=     6 NOB=     5 NVA=    24 NVB=    25

 **** Warning!!: The smallest beta delta epsilon is  0.85083189D-01

 Symmetrizing basis deriv contribution to polar:
 IMax=3 JMax=2 DiffMx= 0.00D+00
 G2DrvN: will do     4 centers at a time, making    1 passes.
 Calling FoFCou, ICntrl=  3107 FMM=F I1Cent=   0 AccDes= 0.00D+00.
 End of G2Drv F.D. properties file   721 does not exist.
 End of G2Drv F.D. properties file   722 does not exist.
 End of G2Drv F.D. properties file   788 does not exist.
          IDoAtm=111
          Differentiating once with respect to electric field.
                with respect to dipole field.
          Differentiating once with respect to nuclear coordinates.
 Keep R1 and R2 ints in memory in canonical form, NReq=7101519.
          There are    12 degrees of freedom in the 1st order CPHF.  IDoFFX=6 NUNeed=     3.
      9 vectors produced by pass  0 Test12= 2.24D-15 8.33D-09 XBig12= 2.43D+02 1.29D+01.
 AX will form     9 AO Fock derivatives at one time.
      9 vectors produced by pass  1 Test12= 2.24D-15 8.33D-09 XBig12= 1.23D+01 1.73D+00.
      9 vectors produced by pass  2 Test12= 2.24D-15 8.33D-09 XBig12= 2.19D-01 2.45D-01.
      9 vectors produced by pass  3 Test12= 2.24D-15 8.33D-09 XBig12= 8.21D-03 6.32D-02.
      7 vectors produced by pass  4 Test12= 2.24D-15 8.33D-09 XBig12= 1.81D-05 1.15D-03.
      5 vectors produced by pass  5 Test12= 2.24D-15 8.33D-09 XBig12= 1.35D-07 1.21D-04.
      2 vectors produced by pass  6 Test12= 2.24D-15 8.33D-09 XBig12= 1.56D-10 6.34D-06.
      1 vectors produced by pass  7 Test12= 2.24D-15 8.33D-09 XBig12= 1.47D-13 1.41D-07.
 InvSVY:  IOpt=1 It=  1 EMax= 3.68D-15
 Solved reduced A of dimension    51 with     9 vectors.
 Isotropic polarizability for W=    0.000000       20.05 Bohr**3.
 End of Minotr F.D. properties file   721 does not exist.
 End of Minotr F.D. properties file   722 does not exist.
 End of Minotr F.D. properties file   788 does not exist.

 **********************************************************************

            Population analysis using the SCF Density.

 **********************************************************************

 Alpha  occ. eigenvalues --  -24.75031  -1.21022  -0.54158  -0.45479  -0.45479
 Alpha  occ. eigenvalues --   -0.34128
 Alpha virt. eigenvalues --   -0.11233   0.24985   0.30192   0.89353   0.91664
 Alpha virt. eigenvalues --    0.91664   1.03584   1.06190   1.22195   1.22195
 Alpha virt. eigenvalues --    1.37809   1.37809   1.70357   2.17209   2.42961
 Alpha virt. eigenvalues --    3.66200   3.68285   3.68285   3.75182   3.75182
 Alpha virt. eigenvalues --    5.88648   5.94602   5.94602  66.48161
  Beta  occ. eigenvalues --  -24.71955  -1.12193  -0.42398  -0.42398  -0.33982
  Beta virt. eigenvalues --   -0.25473  -0.10970   0.25396   0.30452   0.93138
  Beta virt. eigenvalues --    0.93138   0.98111   1.06056   1.07972   1.22362
  Beta virt. eigenvalues --    1.22362   1.38045   1.38045   1.70713   2.18024
  Beta virt. eigenvalues --    2.42655   3.76774   3.76774   3.77856   3.77856
  Beta virt. eigenvalues --    3.79864   5.97208   5.97208   6.02417  66.51222
          Condensed to atoms (all electrons):
               1          2          3
     1  H    0.799988   0.192206   0.004553
     2  H    0.192206   0.790047  -0.000005
     3  F    0.004553  -0.000005   9.016457
          Atomic-Atomic Spin Densities.
               1          2          3
     1  H   -0.540421   0.004758  -0.001463
     2  H    0.004758   0.557610  -0.000081
     3  F   -0.001463  -0.000081   0.976381
 Mulliken charges and spin densities:
               1          2
     1  H    0.003253  -0.537125
     2  H    0.017751   0.562288
     3  F   -0.021005   0.974838
 Sum of Mulliken charges =   0.00000   1.00000
 Mulliken charges and spin densities with hydrogens summed into heavy atoms:
               1          2
     3  F    0.000000   1.000000
 APT charges:
               1
     1  H   -0.111211
     2  H    0.058064
     3  F    0.053147
 Sum of APT charges =   0.00000
 APT charges with hydrogens summed into heavy atoms:
               1
     3  F    0.000000
 Electronic spatial extent (au):  <R**2>=            325.0312
 Charge=              0.0000 electrons
 Dipole moment (field-independent basis, Debye):
    X=             -0.4661    Y=              0.0000    Z=              0.0000  Tot=              0.4661
 Quadrupole moment (field-independent basis, Debye-Ang):
   XX=             -6.4680   YY=             -7.7485   ZZ=             -7.7485
   XY=              0.0000   XZ=              0.0000   YZ=             -0.0000
 Traceless Quadrupole moment (field-independent basis, Debye-Ang):
   XX=              0.8537   YY=             -0.4268   ZZ=             -0.4268
   XY=              0.0000   XZ=              0.0000   YZ=             -0.0000
 Octapole moment (field-independent basis, Debye-Ang**2):
  XXX=            -35.6199  YYY=             -0.0000  ZZZ=             -0.0000  XYY=            -12.4840
  XXY=              0.0000  XXZ=              0.0000  XZZ=            -12.4840  YZZ=             -0.0000
  YYZ=             -0.0000  XYZ=             -0.0000
 Hexadecapole moment (field-independent basis, Debye-Ang**3):
 XXXX=           -252.0734 YYYY=             -6.5983 ZZZZ=             -6.5983 XXXY=              0.0000
 XXXZ=              0.0000 YYYX=              0.0000 YYYZ=             -0.0000 ZZZX=              0.0000
 ZZZY=             -0.0000 XXYY=            -50.7155 XXZZ=            -50.7155 YYZZ=             -2.1994
 XXYZ=             -0.0000 YYXZ=              0.0000 ZZXY=              0.0000
 N-N= 2.895538048654D+00 E-N=-2.467118237503D+02  KE= 1.004599910524D+02
  Exact polarizability:      56.107       0.000       2.028       0.000      -0.000       2.028
 Approx polarizability:      65.037       0.000       1.986       0.000       0.000       1.986
                          Isotropic Fermi Contact Couplings
        Atom                 a.u.       MegaHertz       Gauss      10(-4) cm-1
     1  H(1)              -0.15911    -711.21574    -253.77946    -237.23603
     2  H(1)               0.16782     750.13092     267.66536     250.21674
     3  F(19)              0.02936     123.52169      44.07561      41.20240
 --------------------------------------------------------
       Center         ----  Spin Dipole Couplings  ----
                      3XX-RR        3YY-RR        3ZZ-RR
 --------------------------------------------------------
     1   Atom        0.044574     -0.022287     -0.022287
     2   Atom       -0.027212      0.013606      0.013606
     3   Atom        6.143321     -3.071660     -3.071660
 --------------------------------------------------------
                        XY            XZ            YZ
 --------------------------------------------------------
     1   Atom       -0.000000     -0.000000      0.000000
     2   Atom       -0.000000     -0.000000      0.000000
     3   Atom        0.000002      0.000005      0.000000
 --------------------------------------------------------


 ---------------------------------------------------------------------------------
              Anisotropic Spin Dipole Couplings in Principal Axis System
 ---------------------------------------------------------------------------------

       Atom             a.u.   MegaHertz   Gauss  10(-4) cm-1        Axes

              Baa    -0.0223   -11.891    -4.243    -3.967 -0.0000  0.9443 -0.3290
     1 H(1)   Bbb    -0.0223   -11.891    -4.243    -3.967  0.0000  0.3290  0.9443
              Bcc     0.0446    23.783     8.486     7.933  1.0000 -0.0000 -0.0000
 
              Baa    -0.0272   -14.519    -5.181    -4.843  1.0000  0.0000  0.0000
     2 H(1)   Bbb     0.0136     7.259     2.590     2.421  0.0000  0.9399 -0.3416
              Bcc     0.0136     7.259     2.590     2.421 -0.0000  0.3416  0.9399
 
              Baa    -3.0717 -1542.667  -550.462  -514.578  0.0000  0.9078 -0.4193
     3 F(19)  Bbb    -3.0717 -1542.667  -550.462  -514.578 -0.0000  0.4193  0.9078
              Bcc     6.1433  3085.333  1100.924  1029.156  1.0000  0.0000  0.0000
 

 ---------------------------------------------------------------------------------

 Calling FoFJK, ICntrl=    100127 FMM=F ISym2X=0 I1Cent= 0 IOpClX= 1 NMat=1 NMatS=1 NMatT=0.
 Full mass-weighted force constant matrix:
 Low frequencies ----1994.2004 -199.5012   -0.0011    0.0017    0.0023   71.9801
 Low frequencies ---   71.9801  985.9717  985.9717
 ******    2 imaginary frequencies (negative Signs) ****** 
 Diagonal vibrational polarizability:
       14.3767448       0.0002450       0.0002450
 Harmonic frequencies (cm**-1), IR intensities (KM/Mole), Raman scattering
 activities (A**4/AMU), depolarization ratios for plane and unpolarized
 incident light, reduced masses (AMU), force constants (mDyne/A),
 and normal coordinates:
                      1                      2                      3
                      A                      A                      A
 Frequencies --  -1994.2004              -199.5012               963.3361
 Red. masses --      1.0079                 1.1084                 1.0122
 Frc consts  --      2.3615                 0.0260                 0.5535
 IR Inten    --    117.8155                20.0836                 0.0084
  Atom  AN      X      Y      Z        X      Y      Z        X      Y      Z
     1   1     0.72  -0.00  -0.00     0.69  -0.00  -0.00     0.00   0.81  -0.21
     2   1    -0.69   0.00   0.00     0.72   0.00   0.00    -0.00  -0.53   0.14
     3   9    -0.00   0.00   0.00    -0.07   0.00   0.00    -0.00  -0.02   0.00
                      4
                      A
 Frequencies --    963.3361
 Red. masses --      1.0122
 Frc consts  --      0.5535
 IR Inten    --      0.0084
  Atom  AN      X      Y      Z
     1   1     0.00   0.21   0.81
     2   1     0.00  -0.14  -0.53
     3   9    -0.00  -0.00  -0.02

 -------------------
 - Thermochemistry -
 -------------------
 Temperature   298.150 Kelvin.  Pressure   1.00000 Atm.
 Atom     1 has atomic number  1 and mass   1.00783
 Atom     2 has atomic number  1 and mass   1.00783
 Atom     3 has atomic number  9 and mass  18.99840
 Molecular mass:    21.01405 amu.
 Principal axes and moments of inertia in atomic units:
                           1         2         3
     Eigenvalues --     0.00000 102.61467 102.61467
           X            1.00000  -0.00000   0.00000
           Y            0.00000   1.00000   0.00000
           Z            0.00000   0.00000   1.00000
 This molecule is a prolate symmetric top.
 Rotational symmetry number  1.
 Rotational temperature (Kelvin)      0.84407
 Rotational constant (GHZ):          17.587555
    2 imaginary frequencies ignored.
 Zero-point vibrational energy      11524.1 (Joules/Mol)
                                    2.75432 (Kcal/Mol)
 Vibrational temperatures:   1386.03  1386.03
          (Kelvin)
 
 Zero-point correction=                           0.004389 (Hartree/Particle)
 Thermal correction to Energy=                    0.006835
 Thermal correction to Enthalpy=                  0.007779
 Thermal correction to Gibbs Free Energy=        -0.016124
 Sum of electronic and zero-point Energies=           -100.796697
 Sum of electronic and thermal Energies=              -100.794251
 Sum of electronic and thermal Enthalpies=            -100.793307
 Sum of electronic and thermal Free Energies=         -100.817210
 
                     E (Thermal)             CV                S
                      KCal/Mol        Cal/Mol-Kelvin    Cal/Mol-Kelvin
 Total                    4.289              5.806             50.309
 Electronic               0.000              0.000              1.377
 Translational            0.889              2.981             35.068
 Rotational               0.592              1.987             13.646
 Vibrational              2.808              0.838              0.217
                       Q            Log10(Q)             Ln(Q)
 Total Bot       0.261055D+08          7.416733         17.077658
 Total V=0       0.272685D+10          9.435661         21.726412
 Vib (Bot)       0.975950D-02         -2.010572         -4.629514
 Vib (V=0)       0.101943D+01          0.008356          0.019239
 Electronic      0.200000D+01          0.301030          0.693147
 Translational   0.378633D+07          6.578219         15.146908
 Rotational      0.353229D+03          2.548057          5.867117
 -------------------------------------------------------------------
 Center     Atomic                   Forces (Hartrees/Bohr)
 Number     Number              X              Y              Z
 -------------------------------------------------------------------
      1        1          -0.055635391   -0.000000000    0.000000000
      2        1           0.057636089   -0.000000000   -0.000000000
      3        9          -0.002000698    0.000000000    0.000000000
 -------------------------------------------------------------------
 Cartesian Forces:  Max     0.057636089 RMS     0.026710835

 GradGradGradGradGradGradGradGradGradGradGradGradGradGradGradGradGradGrad
 Berny optimization.
 Search for a local minimum.
 Step number   1 out of a maximum of    2
 All quantities printed in internal units (Hartrees-Bohrs-Radians)
 Second derivative matrix not updated -- analytic derivatives used.
 The second derivative matrix:
                          X1        Y1        Z1        X2        Y2
           X1          -0.07992
           Y1           0.00000   0.01880
           Z1           0.00000   0.00000   0.01880
           X2           0.07507  -0.00000  -0.00000  -0.07312
           Y2          -0.00000  -0.01845  -0.00000   0.00000   0.01845
           Z2          -0.00000  -0.00000  -0.01845   0.00000   0.00000
           X3           0.00485  -0.00000  -0.00000  -0.00195   0.00000
           Y3           0.00000  -0.00036   0.00000  -0.00000  -0.00000
           Z3          -0.00000   0.00000  -0.00036   0.00000  -0.00000
                          Z2        X3        Y3        Z3
           Z2           0.01845
           X3           0.00000  -0.00290
           Y3          -0.00000  -0.00000   0.00036
           Z3          -0.00000  -0.00000   0.00000   0.00036
 ITU=  0
     Eigenvalues ---   -0.15177  -0.00312   0.03527   0.03527
 Eigenvalue     1 is  -1.52D-01 should be greater than     0.000000 Eigenvector:
                          X1        X2        X3        Y1        Z1
   1                    0.72877  -0.68460  -0.01472  -0.00000  -0.00000
                          Y2        Z2        Y3        Z3
   1                    0.00000   0.00000   0.00000   0.00000
 Eigenvalue     2 is  -3.12D-03 should be greater than     0.000000 Eigenvector:
                          X2        X1        X3        Z1        Z2
   1                    0.66363   0.61481  -0.42615  -0.00000   0.00000
                          Y1        Y2        Z3        Y3
   1                   -0.00000   0.00000   0.00000   0.00000
 Quadratic step=1.657D+00 exceeds max=3.000D-01 adjusted using Lamda=-1.168D-01.
 Angle between NR and scaled steps=  63.65 degrees.
 Angle between quadratic step and forces=   4.39 degrees.
 Linear search not attempted -- first point.
 B after Tr=    -0.008679    0.000000   -0.000000
         Rot=    0.874889    0.484324   -0.000000   -0.000000 Ang=  57.94 deg.
 Variable       Old X    -DE/DX   Delta X   Delta X   Delta X     New X
                                 (Linear)    (Quad)   (Total)
    X1        0.00000  -0.05564   0.00000  -0.19191  -0.20059  -0.20059
    Y1        0.00000  -0.00000   0.00000  -0.00000  -0.00000  -0.00000
    Z1        0.00000   0.00000   0.00000  -0.00000   0.00000   0.00000
    X2       -3.11805   0.05764   0.00000   0.23096   0.22228  -2.89576
    Y2        0.00000  -0.00000   0.00000   0.00000   0.00000   0.00000
    Z2        0.00000  -0.00000   0.00000   0.00000  -0.00000  -0.00000
    X3        5.76366  -0.00200   0.00000  -0.01302  -0.02170   5.74197
    Y3        0.00000   0.00000   0.00000   0.00000   0.00000   0.00000
    Z3        0.00000   0.00000   0.00000   0.00000  -0.00000  -0.00000
         Item               Value     Threshold  Converged?
 Maximum Force            0.057636     0.000450     NO 
 RMS     Force            0.026711     0.000300     NO 
 Maximum Displacement     0.222283     0.001800     NO 
 RMS     Displacement     0.100064     0.001200     NO 
 Predicted change in Energy=-3.074614D-02
 GradGradGradGradGradGradGradGradGradGradGradGradGradGradGradGradGradGrad


 ----------------------------------------------------------------------

 Electric dipole moment (input orientation):
 (Debye = 10**-18 statcoulomb cm , SI units = C m)
                  (au)            (Debye)         (10**-30 SI)
   Tot        0.183360D+00      0.466054D+00      0.155459D+01
   x         -0.183360D+00     -0.466054D+00     -0.155459D+01
   y          0.000000D+00      0.000000D+00      0.000000D+00
   z          0.000000D+00      0.000000D+00      0.000000D+00

 Dipole polarizability, Alpha (input orientation).
 (esu units = cm**3 , SI units = C**2 m**2 J**-1)
 Alpha(0;0):
               (au)            (10**-24 esu)      (10**-40 SI)
   iso        0.200544D+02      0.297176D+01      0.330653D+01
   aniso      0.540789D+02      0.801367D+01      0.891641D+01
   xx         0.561071D+02      0.831421D+01      0.925080D+01
   yx         0.000000D+00      0.000000D+00      0.000000D+00
   yy         0.202812D+01      0.300536D+00      0.334391D+00
   zx         0.000000D+00      0.000000D+00      0.000000D+00
   zy         0.000000D+00      0.000000D+00      0.000000D+00
   zz         0.202812D+01      0.300536D+00      0.334391D+00

 ----------------------------------------------------------------------

 Dipole orientation:
     1          0.00000000          0.00000000          0.00000000
     1         -0.00000020         -0.00000008          3.11804811
     9          0.00000038          0.00000015         -5.76366468

 Electric dipole moment (dipole orientation):
 (Debye = 10**-18 statcoulomb cm , SI units = C m)
                  (au)            (Debye)         (10**-30 SI)
   Tot        0.183360D+00      0.466054D+00      0.155459D+01
   x          0.000000D+00      0.000000D+00      0.000000D+00
   y          0.000000D+00      0.000000D+00      0.000000D+00
   z          0.183360D+00      0.466054D+00      0.155459D+01

 Dipole polarizability, Alpha (dipole orientation).
 (esu units = cm**3 , SI units = C**2 m**2 J**-1)
 Alpha(0;0):
               (au)            (10**-24 esu)      (10**-40 SI)
   iso        0.200544D+02      0.297176D+01      0.330653D+01
   aniso      0.540789D+02      0.801367D+01      0.891641D+01
   xx         0.202812D+01      0.300536D+00      0.334391D+00
   yx         0.000000D+00      0.000000D+00      0.000000D+00
   yy         0.202812D+01      0.300536D+00      0.334391D+00
   zx         0.000000D+00      0.000000D+00      0.000000D+00
   zy         0.000000D+00      0.000000D+00      0.000000D+00
   zz         0.561071D+02      0.831421D+01      0.925080D+01

 ----------------------------------------------------------------------
 Unable to Open any file for archive entry.
 1\1\GINC-DESKTOP-B3RIHJD\Freq\UB3LYP\6-311G(d,p)\F1H2(2)\GARYX\22-Aug-
 2025\0\\# sp b3lyp/6-311g** Force nosymm scf=(qc)\\Title Card Required
 \\0,2\H,0.,0.,0.\H,-1.65,0.,0.\F,3.05,0.,0.\\Version=ES64L-G16RevC.01\
 HF=-100.8010859\S2=1.016576\S2-1=0.\S2A=0.750578\RMSD=6.055e-09\RMSF=2
 .671e-02\ZeroPoint=0.0043893\Thermal=0.0068346\ETot=-100.7942513\HTot=
 -100.7933071\GTot=-100.8172103\Dipole=-0.1833598,0.,0.\DipoleDeriv=-0.
 3467212,0.,0.,0.,0.0065447,0.,0.,0.,0.0065447,0.1418335,0.,0.,0.,0.016
 1789,0.,0.,0.,0.0161789,0.2048876,0.,0.,0.,-0.0227236,0.,0.,0.,-0.0227
 236\Polar=56.107054,0.0000005,2.0281156,0.0000011,0.,2.0281155\Quadrup
 ole=0.6346814,-0.3173407,-0.3173407,0.0000001,0.0000004,0.\PG=C*V [C*(
 H1H1F1)]\NImag=2\\-0.07992192,0.,0.01880333,0.,0.,0.01880333,0.0750701
 2,0.,0.,-0.07311735,0.,-0.01844833,0.,0.,0.01845231,0.,0.,-0.01844833,
 0.,0.,0.01845231,0.00485180,0.,0.,-0.00195277,0.,0.,-0.00289903,0.,-0.
 00035500,0.,0.,-0.00000397,0.,0.,0.00035897,0.,0.,-0.00035500,0.,0.,-0
 .00000397,0.,0.,0.00035898\\0.05563539,0.,0.,-0.05763609,0.,0.,0.00200
 070,0.,0.\\\@
 The archive entry for this job was punched.


 SUPPORT THE RIGHT TO ARM BEARS!
 (ADD A CLAWS TO THE BILL OF RIGHTS)
 Job cpu time:       0 days  0 hours  0 minutes 44.1 seconds.
 Elapsed time:       0 days  0 hours  0 minutes  6.0 seconds.
 File lengths (MBytes):  RWF=      6 Int=      0 D2E=      0 Chk=      1 Scr=      1
 Normal termination of Gaussian 16 at Fri Aug 22 19:43:00 2025.
