 Entering Gaussian System, Link 0=g16
 Initial command:
 /home/garyx/gaussian/g16/l1.exe "/tmp/gaussian_scratch/Gau-595250.inp" -scrdir="/tmp/gaussian_scratch/"
 Entering Link 1 = /home/garyx/gaussian/g16/l1.exe PID=    595252.
  
 Copyright (c) 1988-2019, Gaussian, Inc.  All Rights Reserved.
  
 This is part of the Gaussian(R) 16 program.  It is based on
 the Gaussian(R) 09 system (copyright 2009, Gaussian, Inc.),
 the Gaussian(R) 03 system (copyright 2003, Gaussian, Inc.),
 the Gaussian(R) 98 system (copyright 1998, Gaussian, Inc.),
 the Gaussian(R) 94 system (copyright 1995, Gaussian, Inc.),
 the Gaussian 92(TM) system (copyright 1992, Gaussian, Inc.),
 the Gaussian 90(TM) system (copyright 1990, Gaussian, Inc.),
 the Gaussian 88(TM) system (copyright 1988, Gaussian, Inc.),
 the Gaussian 86(TM) system (copyright 1986, Carnegie Mellon
 University), and the Gaussian 82(TM) system (copyright 1983,
 Carnegie Mellon University). Gaussian is a federally registered
 trademark of Gaussian, Inc.
  
 This software contains proprietary and confidential information,
 including trade secrets, belonging to Gaussian, Inc.
  
 This software is provided under written license and may be
 used, copied, transmitted, or stored only in accord with that
 written license.
  
 The following legend is applicable only to US Government
 contracts under FAR:
  
                    RESTRICTED RIGHTS LEGEND
  
 Use, reproduction and disclosure by the US Government is
 subject to restrictions as set forth in subparagraphs (a)
 and (c) of the Commercial Computer Software - Restricted
 Rights clause in FAR 52.227-19.
  
 Gaussian, Inc.
 340 Quinnipiac St., Bldg. 40, Wallingford CT 06492
  
  
 ---------------------------------------------------------------
 Warning -- This program may not be used in any manner that
 competes with the business of Gaussian, Inc. or will provide
 assistance to any competitor of Gaussian, Inc.  The licensee
 of this program is prohibited from giving any competitor of
 Gaussian, Inc. access to this program.  By using this program,
 the user acknowledges that Gaussian, Inc. is engaged in the
 business of creating and licensing software in the field of
 computational chemistry and represents and warrants to the
 licensee that it is not a competitor of Gaussian, Inc. and that
 it will not use this program in any manner prohibited above.
 ---------------------------------------------------------------
  

 Cite this work as:
 Gaussian 16, Revision C.01,
 M. J. Frisch, G. W. Trucks, H. B. Schlegel, G. E. Scuseria, 
 M. A. Robb, J. R. Cheeseman, G. Scalmani, V. Barone, 
 G. A. Petersson, H. Nakatsuji, X. Li, M. Caricato, A. V. Marenich, 
 J. Bloino, B. G. Janesko, R. Gomperts, B. Mennucci, H. P. Hratchian, 
 J. V. Ortiz, A. F. Izmaylov, J. L. Sonnenberg, D. Williams-Young, 
 F. Ding, F. Lipparini, F. Egidi, J. Goings, B. Peng, A. Petrone, 
 T. Henderson, D. Ranasinghe, V. G. Zakrzewski, J. Gao, N. Rega, 
 G. Zheng, W. Liang, M. Hada, M. Ehara, K. Toyota, R. Fukuda, 
 J. Hasegawa, M. Ishida, T. Nakajima, Y. Honda, O. Kitao, H. Nakai, 
 T. Vreven, K. Throssell, J. A. Montgomery, Jr., J. E. Peralta, 
 F. Ogliaro, M. J. Bearpark, J. J. Heyd, E. N. Brothers, K. N. Kudin, 
 V. N. Staroverov, T. A. Keith, R. Kobayashi, J. Normand, 
 K. Raghavachari, A. P. Rendell, J. C. Burant, S. S. Iyengar, 
 J. Tomasi, M. Cossi, J. M. Millam, M. Klene, C. Adamo, R. Cammi, 
 J. W. Ochterski, R. L. Martin, K. Morokuma, O. Farkas, 
 J. B. Foresman, and D. J. Fox, Gaussian, Inc., Wallingford CT, 2019.
 
 ******************************************
 Gaussian 16:  ES64L-G16RevC.01  3-Jul-2019
                22-Aug-2025 
 ******************************************
 %mem=10GB
 %nprocs=8
 Will use up to    8 processors via shared memory.
 -----------------------------------------
 # sp b3lyp/6-311g** Force nosymm scf=(qc)
 -----------------------------------------
 1/10=4,30=1,38=1/1,3;
 2/12=2,15=1,17=6,18=5,40=1/2;
 3/5=4,6=6,7=101,11=2,25=1,30=1,71=2,74=-5,140=1/1,2,3;
 4//1;
 5/5=2,8=3,38=5,98=1/8;
 8/6=4,10=90,11=11/1;
 11/6=1,8=1,9=11,15=111,16=1,31=1/1,2,10;
 10/6=1,31=1/2;
 6/7=2,8=2,9=2,10=2,28=1/1;
 7/8=1,10=1,25=1,30=1/1,2,3,16;
 1/10=4,30=1/3;
 99//99;
 -------------------
 Title Card Required
 -------------------
 Symbolic Z-matrix:
 Charge =  0 Multiplicity = 2
 H                     0.        0.        0. 
 H                    -3.75      0.        0. 
 F                     2.45      0.        0. 
 

 GradGradGradGradGradGradGradGradGradGradGradGradGradGradGradGradGradGrad
 Berny optimization.
 Initialization pass.
 Trust Radius=3.00D-01 FncErr=1.00D-07 GrdErr=1.00D-07 EigMax=2.50D+02 EigMin=1.00D-04
 Number of steps in this run=      2 maximum allowed number of steps=      2.
 GradGradGradGradGradGradGradGradGradGradGradGradGradGradGradGradGradGrad

                          Input orientation:                          
 ---------------------------------------------------------------------
 Center     Atomic      Atomic             Coordinates (Angstroms)
 Number     Number       Type             X           Y           Z
 ---------------------------------------------------------------------
      1          1           0        0.000000    0.000000    0.000000
      2          1           0       -3.750000    0.000000    0.000000
      3          9           0        2.450000    0.000000    0.000000
 ---------------------------------------------------------------------
                    Distance matrix (angstroms):
                    1          2          3
     1  H    0.000000
     2  H    3.750000   0.000000
     3  F    2.450000   6.200000   0.000000
 Symmetry turned off by external request.
 Stoichiometry    FH2(2)
 Framework group  C*V[C*(HHF)]
 Deg. of freedom     2
 Full point group                 C*V     NOp   4
 Rotational constants (GHZ):           0.0000000          12.2743074          12.2743074
 Standard basis: 6-311G(d,p) (5D, 7F)
    30 basis functions,    48 primitive gaussians,    31 cartesian basis functions
     6 alpha electrons        5 beta electrons
       nuclear repulsion energy         2.8531906754 Hartrees.
 NAtoms=    3 NActive=    3 NUniq=    3 SFac= 1.00D+00 NAtFMM=   60 NAOKFM=F Big=F
 Integral buffers will be    131072 words long.
 Raffenetti 2 integral format.
 Two-electron integral symmetry is turned off.
 One-electron integrals computed using PRISM.
 NBasis=    30 RedAO= T EigKep=  8.87D-02  NBF=    30
 NBsUse=    30 1.00D-06 EigRej= -1.00D+00 NBFU=    30
 ExpMin= 1.03D-01 ExpMax= 1.14D+04 ExpMxC= 1.72D+03 IAcc=3 IRadAn=         5 AccDes= 0.00D+00
 Harris functional with IExCor=  402 and IRadAn=       5 diagonalized for initial guess.
 HarFok:  IExCor=  402 AccDes= 0.00D+00 IRadAn=         5 IDoV= 1 UseB2=F ITyADJ=14
 ICtDFT=  3500011 ScaDFX=  1.000000  1.000000  1.000000  1.000000
 FoFCou: FMM=F IPFlag=           0 FMFlag=      100000 FMFlg1=           0
         NFxFlg=           0 DoJE=T BraDBF=F KetDBF=T FulRan=T
         wScrn=  0.000000 ICntrl=       500 IOpCl=  0 I1Cent=   200000004 NGrid=           0
         NMat0=    1 NMatS0=      1 NMatT0=    0 NMatD0=    1 NMtDS0=    0 NMtDT0=    0
 Symmetry not used in FoFCou.
 Initial guess <Sx>= 0.0000 <Sy>= 0.0000 <Sz>= 0.5000 <S**2>= 0.7500 S= 0.5000
 Keep R1 and R2 ints in memory in canonical form, NReq=7127049.
 Gradient too large for Newton-Raphson -- use scaled steepest descent instead.
  Beta Gap=    -0.376 HL deriv= 4.24D-14 Rot set to   3.78D-01
     Minimum is close to point  3 DX= -2.16D-03 DF= -3.85D-06 DXR=  5.44D-03 DFR=  3.24D-05 which will be used.
 Gradient too large for Newton-Raphson -- use scaled steepest descent instead.
     Accept linear search using points  5 and  6.
     Minimum is close to point  6 DX= -1.90D-01 DF= -3.11D-04 DXR=  7.02D-02 DFR=  7.08D-03 which will be used.
 Gradient too large for Newton-Raphson -- use scaled steepest descent instead.
     Accept linear search using points  1 and  2.
 Gradient too large for Newton-Raphson -- use scaled steepest descent instead.
     Accept linear search using points  1 and  2.
 Gradient too large for Newton-Raphson -- use scaled steepest descent instead.
     Minimum is close to point  3 DX= -3.88D-03 DF= -2.95D-06 DXR=  1.31D-02 DFR=  1.72D-04 which will be used.
 Gradient too large for Newton-Raphson -- use scaled steepest descent instead.
     Accept linear search using points  1 and  2.
 Gradient too large for Newton-Raphson -- use scaled steepest descent instead.
     Minimum is close to point  3 DX=  2.17D-02 DF= -1.71D-05 DXR=  4.16D-02 DFR=  1.57D-03 which will be used.
 Gradient too large for Newton-Raphson -- use scaled steepest descent instead.
     Accept linear search using points  2 and  3.
 Gradient too large for Newton-Raphson -- use scaled steepest descent instead.
 Gradient too large for Newton-Raphson -- use scaled steepest descent instead.
     Minimum is close to point  2 DX=  1.14D-02 DF= -7.73D-07 DXR=  1.86D-02 DFR=  3.48D-04 which will be used.
 Gradient too large for Newton-Raphson -- use scaled steepest descent instead.
     Minimum is close to point  2 DX=  6.76D-02 DF= -6.57D-06 DXR=  8.81D-02 DFR=  7.82D-03 which will be used.
 Gradient too large for Newton-Raphson -- use scaled steepest descent instead.
     Minimum is close to point  2 DX=  7.33D-02 DF= -3.03D-06 DXR=  9.47D-02 DFR=  9.06D-03 which will be used.
 Gradient too large for Newton-Raphson -- use scaled steepest descent instead.
     Minimum is close to point  2 DX=  1.56D-02 DF= -5.10D-08 DXR=  1.92D-02 DFR=  3.67D-04 which will be used.
 LinEq1:  Iter=  0 NonCon=     1 RMS=1.56D-03 Max=1.95D-02 NDo=     1
 AX will form     1 AO Fock derivatives at one time.
 LinEq1:  Iter=  1 NonCon=     1 RMS=1.47D-03 Max=1.71D-02 NDo=     1
 LinEq1:  Iter=  2 NonCon=     1 RMS=5.25D-04 Max=4.90D-03 NDo=     1
 LinEq1:  Iter=  3 NonCon=     1 RMS=5.55D-05 Max=3.80D-04 NDo=     1
 LinEq1:  Iter=  4 NonCon=     1 RMS=9.37D-06 Max=5.62D-05 NDo=     1
 LinEq1:  Iter=  5 NonCon=     1 RMS=8.20D-07 Max=5.08D-06 NDo=     1
 LinEq1:  Iter=  6 NonCon=     1 RMS=1.33D-07 Max=1.35D-06 NDo=     1
 LinEq1:  Iter=  7 NonCon=     1 RMS=3.11D-08 Max=2.08D-07 NDo=     1
 LinEq1:  Iter=  8 NonCon=     1 RMS=3.11D-09 Max=4.03D-08 NDo=     1
 LinEq1:  Iter=  9 NonCon=     0 RMS=1.39D-09 Max=1.37D-08 NDo=     1
 Linear equations converged to 1.640D-09 1.640D-08 after     9 iterations.
     Accept linear search using points  1 and  2.
 LinEq1:  Iter=  0 NonCon=     1 RMS=4.46D-04 Max=6.50D-03 NDo=     1
 LinEq1:  Iter=  1 NonCon=     1 RMS=2.50D-04 Max=2.04D-03 NDo=     1
 LinEq1:  Iter=  2 NonCon=     1 RMS=1.69D-04 Max=2.33D-03 NDo=     1
 LinEq1:  Iter=  3 NonCon=     1 RMS=2.93D-05 Max=2.52D-04 NDo=     1
 LinEq1:  Iter=  4 NonCon=     1 RMS=6.98D-06 Max=4.52D-05 NDo=     1
 LinEq1:  Iter=  5 NonCon=     1 RMS=9.33D-07 Max=8.64D-06 NDo=     1
 LinEq1:  Iter=  6 NonCon=     1 RMS=1.85D-07 Max=1.13D-06 NDo=     1
 LinEq1:  Iter=  7 NonCon=     1 RMS=1.65D-08 Max=1.24D-07 NDo=     1
 LinEq1:  Iter=  8 NonCon=     0 RMS=9.85D-10 Max=5.87D-09 NDo=     1
 Linear equations converged to 1.640D-09 1.640D-08 after     8 iterations.
     Minimum is close to point  2 DX=  4.84D-02 DF= -7.04D-08 DXR=  4.61D-02 DFR=  2.13D-03 which will be used.
 LinEq1:  Iter=  0 NonCon=     1 RMS=1.16D-05 Max=1.47D-04 NDo=     1
 LinEq1:  Iter=  1 NonCon=     1 RMS=1.10D-05 Max=1.35D-04 NDo=     1
 LinEq1:  Iter=  2 NonCon=     1 RMS=4.42D-06 Max=3.64D-05 NDo=     1
 LinEq1:  Iter=  3 NonCon=     1 RMS=5.71D-07 Max=4.85D-06 NDo=     1
 LinEq1:  Iter=  4 NonCon=     1 RMS=6.97D-08 Max=7.14D-07 NDo=     1
 LinEq1:  Iter=  5 NonCon=     1 RMS=1.49D-08 Max=1.09D-07 NDo=     1
 LinEq1:  Iter=  6 NonCon=     1 RMS=1.78D-09 Max=1.50D-08 NDo=     1
 LinEq1:  Iter=  7 NonCon=     0 RMS=3.21D-10 Max=2.15D-09 NDo=     1
 Linear equations converged to 1.486D-09 1.486D-08 after     7 iterations.
     Minimum is close to point  2 DX=  3.57D-03 DF= -1.09D-12 DXR=  3.56D-03 DFR=  1.26D-05 which will be used.
 LinEq1:  Iter=  0 NonCon=     1 RMS=1.24D-07 Max=1.92D-06 NDo=     1
 LinEq1:  Iter=  1 NonCon=     1 RMS=5.67D-08 Max=5.33D-07 NDo=     1
 LinEq1:  Iter=  2 NonCon=     1 RMS=2.66D-08 Max=3.34D-07 NDo=     1
 LinEq1:  Iter=  3 NonCon=     1 RMS=7.40D-09 Max=6.85D-08 NDo=     1
 LinEq1:  Iter=  4 NonCon=     1 RMS=1.42D-09 Max=1.05D-08 NDo=     1
 LinEq1:  Iter=  5 NonCon=     1 RMS=1.85D-10 Max=1.88D-09 NDo=     1
 LinEq1:  Iter=  6 NonCon=     1 RMS=3.96D-11 Max=3.23D-10 NDo=     1
 LinEq1:  Iter=  7 NonCon=     0 RMS=3.95D-12 Max=3.13D-11 NDo=     1
 Linear equations converged to 1.587D-11 1.587D-10 after     7 iterations.
 SCF Done:  E(UB3LYP) =  -100.768471045     a.u. after   18 cycles
            Convg  =    0.2300D-08                    72 Fock formations.
              S**2 =  1.5960                  -V/T =  2.0019
 <Sx>= 0.0000 <Sy>= 0.0000 <Sz>= 0.5000 <S**2>= 1.5960 S= 0.8587
 <L.S>=  0.00000000000    
 Annihilation of the first spin contaminant:
 S**2 before annihilation     1.5960,   after     0.7519
 DoSCS=F DFT=T ScalE2(SS,OS)=  1.000000  1.000000
 Range of M.O.s used for correlation:     1    30
 NBasis=    30 NAE=     6 NBE=     5 NFC=     0 NFV=     0
 NROrb=     30 NOA=     6 NOB=     5 NVA=    24 NVB=    25
 Symmetrizing basis deriv contribution to polar:
 IMax=3 JMax=2 DiffMx= 0.00D+00
 G2DrvN: will do     4 centers at a time, making    1 passes.
 Calling FoFCou, ICntrl=  3107 FMM=F I1Cent=   0 AccDes= 0.00D+00.
 End of G2Drv F.D. properties file   721 does not exist.
 End of G2Drv F.D. properties file   722 does not exist.
 End of G2Drv F.D. properties file   788 does not exist.
          IDoAtm=111
          Differentiating once with respect to electric field.
                with respect to dipole field.
          Differentiating once with respect to nuclear coordinates.
 Keep R1 and R2 ints in memory in canonical form, NReq=7101526.
          There are    12 degrees of freedom in the 1st order CPHF.  IDoFFX=6 NUNeed=     3.
      9 vectors produced by pass  0 Test12= 2.24D-15 8.33D-09 XBig12= 1.44D+02 1.19D+01.
 AX will form     9 AO Fock derivatives at one time.
      9 vectors produced by pass  1 Test12= 2.24D-15 8.33D-09 XBig12= 8.61D+00 1.09D+00.
      9 vectors produced by pass  2 Test12= 2.24D-15 8.33D-09 XBig12= 9.23D-01 5.40D-01.
      7 vectors produced by pass  3 Test12= 2.24D-15 8.33D-09 XBig12= 2.83D-03 1.81D-02.
      6 vectors produced by pass  4 Test12= 2.24D-15 8.33D-09 XBig12= 2.51D-05 1.62D-03.
      4 vectors produced by pass  5 Test12= 2.24D-15 8.33D-09 XBig12= 9.35D-08 9.18D-05.
      1 vectors produced by pass  6 Test12= 2.24D-15 8.33D-09 XBig12= 1.53D-10 7.92D-06.
      1 vectors produced by pass  7 Test12= 2.24D-15 8.33D-09 XBig12= 1.49D-13 1.70D-07.
 InvSVY:  IOpt=1 It=  1 EMax= 9.41D-16
 Solved reduced A of dimension    46 with     9 vectors.
 Isotropic polarizability for W=    0.000000       11.29 Bohr**3.
 End of Minotr F.D. properties file   721 does not exist.
 End of Minotr F.D. properties file   722 does not exist.
 End of Minotr F.D. properties file   788 does not exist.

 **********************************************************************

            Population analysis using the SCF Density.

 **********************************************************************

 Alpha  occ. eigenvalues --  -24.71435  -1.17669  -0.50533  -0.42457  -0.42457
 Alpha  occ. eigenvalues --   -0.32846
 Alpha virt. eigenvalues --   -0.10512   0.23334   0.35006   0.89418   0.93771
 Alpha virt. eigenvalues --    0.93771   1.06242   1.24657   1.24657   1.24708
 Alpha virt. eigenvalues --    1.40019   1.40019   1.45416   2.14170   2.36322
 Alpha virt. eigenvalues --    3.69941   3.71875   3.71875   3.78261   3.78261
 Alpha virt. eigenvalues --    5.93438   5.97751   5.97751  66.52036
  Beta  occ. eigenvalues --  -24.68621  -1.09672  -0.39655  -0.39655  -0.35568
  Beta virt. eigenvalues --   -0.23136  -0.06369   0.23682   0.38076   0.95108
  Beta virt. eigenvalues --    0.95108   0.95189   1.08437   1.21947   1.21947
  Beta virt. eigenvalues --    1.31262   1.46168   1.46397   1.46397   2.12242
  Beta virt. eigenvalues --    2.42234   3.79717   3.79717   3.80613   3.80613
  Beta virt. eigenvalues --    3.82247   6.00137   6.00137   6.05935  66.54826
          Condensed to atoms (all electrons):
               1          2          3
     1  H    0.880949   0.000813   0.020567
     2  H    0.000813   0.998685  -0.000000
     3  F    0.020567  -0.000000   9.077607
          Atomic-Atomic Spin Densities.
               1          2          3
     1  H   -0.875868   0.000314  -0.011814
     2  H    0.000314   0.998562  -0.000000
     3  F   -0.011814  -0.000000   0.900307
 Mulliken charges and spin densities:
               1          2
     1  H    0.097672  -0.887368
     2  H    0.000502   0.998876
     3  F   -0.098174   0.888493
 Sum of Mulliken charges =  -0.00000   1.00000
 Mulliken charges and spin densities with hydrogens summed into heavy atoms:
               1          2
     3  F   -0.000000   1.000000
 APT charges:
               1
     1  H   -0.027708
     2  H   -0.000729
     3  F    0.028437
 Sum of APT charges =  -0.00000
 APT charges with hydrogens summed into heavy atoms:
               1
     3  F   -0.000000
 Electronic spatial extent (au):  <R**2>=            261.3904
 Charge=             -0.0000 electrons
 Dipole moment (field-independent basis, Debye):
    X=             -1.2298    Y=             -0.0000    Z=             -0.0000  Tot=              1.2298
 Quadrupole moment (field-independent basis, Debye-Ang):
   XX=             -9.4283   YY=             -7.5623   ZZ=             -7.5623
   XY=             -0.0000   XZ=             -0.0000   YZ=              0.0000
 Traceless Quadrupole moment (field-independent basis, Debye-Ang):
   XX=             -1.2440   YY=              0.6220   ZZ=              0.6220
   XY=             -0.0000   XZ=             -0.0000   YZ=              0.0000
 Octapole moment (field-independent basis, Debye-Ang**2):
  XXX=            -21.7824  YYY=             -0.0000  ZZZ=             -0.0000  XYY=             -6.9309
  XXY=             -0.0000  XXZ=             -0.0000  XZZ=             -6.9309  YZZ=             -0.0000
  YYZ=             -0.0000  XYZ=              0.0000
 Hexadecapole moment (field-independent basis, Debye-Ang**3):
 XXXX=           -286.3748 YYYY=             -6.1575 ZZZZ=             -6.1575 XXXY=             -0.0000
 XXXZ=             -0.0000 YYYX=             -0.0000 YYYZ=              0.0000 ZZZX=             -0.0000
 ZZZY=              0.0000 XXYY=            -51.1681 XXZZ=            -51.1681 YYZZ=             -2.0525
 XXYZ=              0.0000 YYXZ=             -0.0000 ZZXY=             -0.0000
 N-N= 2.853190675389D+00 E-N=-2.469313077640D+02  KE= 1.005806719435D+02
  Exact polarizability:      29.822      -0.000       2.028      -0.000      -0.000       2.028
 Approx polarizability:      38.596      -0.000       1.921      -0.000       0.000       1.921
                          Isotropic Fermi Contact Couplings
        Atom                 a.u.       MegaHertz       Gauss      10(-4) cm-1
     1  H(1)              -0.26888   -1201.86222    -428.85433    -400.89808
     2  H(1)               0.29667    1326.08893     473.18151     442.33565
     3  F(19)              0.01322      55.64044      19.85389      18.55965
 --------------------------------------------------------
       Center         ----  Spin Dipole Couplings  ----
                      3XX-RR        3YY-RR        3ZZ-RR
 --------------------------------------------------------
     1   Atom        0.024159     -0.012079     -0.012079
     2   Atom       -0.003782      0.001891      0.001891
     3   Atom        5.642022     -2.821011     -2.821011
 --------------------------------------------------------
                        XY            XZ            YZ
 --------------------------------------------------------
     1   Atom        0.000000      0.000000      0.000000
     2   Atom        0.000000      0.000000      0.000000
     3   Atom       -0.000000     -0.000000     -0.000000
 --------------------------------------------------------


 ---------------------------------------------------------------------------------
              Anisotropic Spin Dipole Couplings in Principal Axis System
 ---------------------------------------------------------------------------------

       Atom             a.u.   MegaHertz   Gauss  10(-4) cm-1        Axes

              Baa    -0.0121    -6.445    -2.300    -2.150  0.0000 -0.2310  0.9730
     1 H(1)   Bbb    -0.0121    -6.445    -2.300    -2.150 -0.0000  0.9730  0.2310
              Bcc     0.0242    12.890     4.599     4.300  1.0000  0.0000  0.0000
 
              Baa    -0.0038    -2.018    -0.720    -0.673  1.0000 -0.0000 -0.0000
     2 H(1)   Bbb     0.0019     1.009     0.360     0.337 -0.0000 -0.1742  0.9847
              Bcc     0.0019     1.009     0.360     0.337  0.0000  0.9847  0.1742
 
              Baa    -2.8210 -1416.784  -505.544  -472.588  0.0000  0.9858  0.1680
     3 F(19)  Bbb    -2.8210 -1416.784  -505.544  -472.588  0.0000 -0.1680  0.9858
              Bcc     5.6420  2833.568  1011.087   945.176  1.0000 -0.0000 -0.0000
 

 ---------------------------------------------------------------------------------

 Calling FoFJK, ICntrl=    100127 FMM=F ISym2X=0 I1Cent= 0 IOpClX= 1 NMat=1 NMatS=1 NMatT=0.
 Full mass-weighted force constant matrix:
 Low frequencies --- -646.6872  -91.0899   -0.0009    0.0007    0.0008   30.8588
 Low frequencies ---   30.8588  275.3960  275.3960
 ******    2 imaginary frequencies (negative Signs) ****** 
 Diagonal vibrational polarizability:
        5.7700907       3.7656833       3.7656833
 Harmonic frequencies (cm**-1), IR intensities (KM/Mole), Raman scattering
 activities (A**4/AMU), depolarization ratios for plane and unpolarized
 incident light, reduced masses (AMU), force constants (mDyne/A),
 and normal coordinates:
                      1                      2                      3
                      A                      A                      A
 Frequencies --   -646.6872               -91.0899               256.9497
 Red. masses --      1.0562                 1.0553                 1.0238
 Frc consts  --      0.2602                 0.0052                 0.0398
 IR Inten    --     85.0382                 0.0919                 9.2386
  Atom  AN      X      Y      Z        X      Y      Z        X      Y      Z
     1   1     1.00  -0.00  -0.00    -0.03   0.00  -0.00     0.00   0.93   0.00
     2   1    -0.02   0.00   0.00     1.00  -0.00   0.00    -0.00  -0.37  -0.00
     3   9    -0.05   0.00   0.00    -0.05  -0.00   0.00     0.00  -0.03  -0.00
                      4
                      A
 Frequencies --    256.9497
 Red. masses --      1.0238
 Frc consts  --      0.0398
 IR Inten    --      9.2386
  Atom  AN      X      Y      Z
     1   1     0.00  -0.00   0.93
     2   1     0.00   0.00  -0.37
     3   9    -0.00   0.00  -0.03

 -------------------
 - Thermochemistry -
 -------------------
 Temperature   298.150 Kelvin.  Pressure   1.00000 Atm.
 Atom     1 has atomic number  1 and mass   1.00783
 Atom     2 has atomic number  1 and mass   1.00783
 Atom     3 has atomic number  9 and mass  18.99840
 Molecular mass:    21.01405 amu.
 Principal axes and moments of inertia in atomic units:
                           1         2         3
     Eigenvalues --     0.00000 147.03406 147.03406
           X            1.00000  -0.00000   0.00000
           Y            0.00000   1.00000   0.00000
           Z            0.00000   0.00000   1.00000
 This molecule is a prolate symmetric top.
 Rotational symmetry number  1.
 Rotational temperature (Kelvin)      0.58907
 Rotational constant (GHZ):          12.274307
    2 imaginary frequencies ignored.
 Zero-point vibrational energy       3073.8 (Joules/Mol)
                                    0.73466 (Kcal/Mol)
 Warning -- explicit consideration of   2 degrees of freedom as
           vibrations may cause significant error
 Vibrational temperatures:    369.69   369.69
          (Kelvin)
 
 Zero-point correction=                           0.001171 (Hartree/Particle)
 Thermal correction to Energy=                    0.004485
 Thermal correction to Enthalpy=                  0.005429
 Thermal correction to Gibbs Free Energy=        -0.020310
 Sum of electronic and zero-point Energies=           -100.767300
 Sum of electronic and thermal Energies=              -100.763986
 Sum of electronic and thermal Enthalpies=            -100.763042
 Sum of electronic and thermal Free Energies=         -100.788781
 
                     E (Thermal)             CV                S
                      KCal/Mol        Cal/Mol-Kelvin    Cal/Mol-Kelvin
 Total                    2.814              8.470             54.171
 Electronic               0.000              0.000              1.377
 Translational            0.889              2.981             35.068
 Rotational               0.592              1.987             14.361
 Vibrational              1.333              3.502              3.365
 Vibration     1          0.667              1.751              1.682
 Vibration     2          0.667              1.751              1.682
                       Q            Log10(Q)             Ln(Q)
 Total Bot       0.219661D+10          9.341752         21.510180
 Total V=0       0.759030D+10          9.880259         22.750137
 Vib (Bot)       0.573111D+00         -0.241761         -0.556676
 Vib (Bot)    1  0.757041D+00         -0.120881         -0.278338
 Vib (Bot)    2  0.757041D+00         -0.120881         -0.278338
 Vib (V=0)       0.198037D+01          0.296745          0.683282
 Vib (V=0)    1  0.140725D+01          0.148373          0.341641
 Vib (V=0)    2  0.140725D+01          0.148373          0.341641
 Electronic      0.200000D+01          0.301030          0.693147
 Translational   0.378633D+07          6.578219         15.146908
 Rotational      0.506133D+03          2.704265          6.226800
 -------------------------------------------------------------------
 Center     Atomic                   Forces (Hartrees/Bohr)
 Number     Number              X              Y              Z
 -------------------------------------------------------------------
      1        1           0.012431544    0.000000000    0.000000000
      2        1           0.000247743   -0.000000000   -0.000000000
      3        9          -0.012679287   -0.000000000   -0.000000000
 -------------------------------------------------------------------
 Cartesian Forces:  Max     0.012679287 RMS     0.005919544

 GradGradGradGradGradGradGradGradGradGradGradGradGradGradGradGradGradGrad
 Berny optimization.
 Search for a local minimum.
 Step number   1 out of a maximum of    2
 All quantities printed in internal units (Hartrees-Bohrs-Radians)
 Second derivative matrix not updated -- analytic derivatives used.
 The second derivative matrix:
                          X1        Y1        Z1        X2        Y2
           X1          -0.01517
           Y1           0.00000   0.00275
           Z1           0.00000  -0.00000   0.00275
           X2           0.00033  -0.00000  -0.00000  -0.00031
           Y2          -0.00000  -0.00004   0.00000   0.00000   0.00003
           Z2          -0.00000   0.00000  -0.00004  -0.00000  -0.00000
           X3           0.01485  -0.00000  -0.00000  -0.00002  -0.00000
           Y3          -0.00000  -0.00271   0.00000   0.00000   0.00000
           Z3          -0.00000   0.00000  -0.00271   0.00000  -0.00000
                          Z2        X3        Y3        Z3
           Z2           0.00003
           X3           0.00000  -0.01483
           Y3          -0.00000   0.00000   0.00271
           Z3           0.00000   0.00000  -0.00000   0.00271
 ITU=  0
     Eigenvalues ---   -0.02449  -0.00042   0.00333   0.00333
 Eigenvalue     1 is  -2.45D-02 should be greater than     0.000000 Eigenvector:
                          X1        X3        X2        Z1        Z2
   1                    0.92686  -0.35224   0.12987  -0.00000   0.00000
                          Y1        Z3        Y2        Y3
   1                   -0.00000   0.00000   0.00000   0.00000
 Eigenvalue     2 is  -4.23D-04 should be greater than     0.000000 Eigenvector:
                          X2        X3        X1        Y1        Y2
   1                    0.94458  -0.24030  -0.22367   0.00000  -0.00000
                          Z1        Y3        Z2        Z3
   1                   -0.00000  -0.00000   0.00000   0.00000
 Quadratic step=1.350D+00 exceeds max=3.000D-01 adjusted using Lamda=-2.893D-02.
 Angle between NR and scaled steps=  57.77 degrees.
 Angle between quadratic step and forces=  25.54 degrees.
 Linear search not attempted -- first point.
 B after Tr=    -0.073156   -0.000000    0.000000
         Rot=    0.968284    0.249851    0.000000    0.000000 Ang=  28.94 deg.
 Variable       Old X    -DE/DX   Delta X   Delta X   Delta X     New X
                                 (Linear)    (Quad)   (Total)
    X1        0.00000   0.01243   0.00000   0.27415   0.20100   0.20100
    Y1        0.00000   0.00000   0.00000   0.00000   0.00000   0.00000
    Z1        0.00000   0.00000   0.00000   0.00000  -0.00000  -0.00000
    X2       -7.08647   0.00025   0.00000   0.05505  -0.01811  -7.10458
    Y2        0.00000  -0.00000   0.00000  -0.00000  -0.00000  -0.00000
    Z2        0.00000  -0.00000   0.00000  -0.00000   0.00000   0.00000
    X3        4.62983  -0.01268   0.00000  -0.10973  -0.18289   4.44694
    Y3        0.00000  -0.00000   0.00000  -0.00000  -0.00000  -0.00000
    Z3        0.00000  -0.00000   0.00000  -0.00000   0.00000   0.00000
         Item               Value     Threshold  Converged?
 Maximum Force            0.012679     0.000450     NO 
 RMS     Force            0.005920     0.000300     NO 
 Maximum Displacement     0.200998     0.001800     NO 
 RMS     Displacement     0.090785     0.001200     NO 
 Predicted change in Energy=-5.914579D-03
 GradGradGradGradGradGradGradGradGradGradGradGradGradGradGradGradGradGrad


 ----------------------------------------------------------------------

 Electric dipole moment (input orientation):
 (Debye = 10**-18 statcoulomb cm , SI units = C m)
                  (au)            (Debye)         (10**-30 SI)
   Tot        0.483847D+00      0.122982D+01      0.410222D+01
   x         -0.483847D+00     -0.122982D+01     -0.410222D+01
   y          0.000000D+00      0.000000D+00      0.000000D+00
   z          0.000000D+00      0.000000D+00      0.000000D+00

 Dipole polarizability, Alpha (input orientation).
 (esu units = cm**3 , SI units = C**2 m**2 J**-1)
 Alpha(0;0):
               (au)            (10**-24 esu)      (10**-40 SI)
   iso        0.112924D+02      0.167336D+01      0.186186D+01
   aniso      0.277941D+02      0.411867D+01      0.458263D+01
   xx         0.298218D+02      0.441914D+01      0.491695D+01
   yx         0.000000D+00      0.000000D+00      0.000000D+00
   yy         0.202767D+01      0.300470D+00      0.334318D+00
   zx         0.000000D+00      0.000000D+00      0.000000D+00
   zy         0.000000D+00      0.000000D+00      0.000000D+00
   zz         0.202767D+01      0.300470D+00      0.334318D+00

 ----------------------------------------------------------------------

 Dipole orientation:
     1          0.00000000          0.00000000         -0.00000000
     1          0.00000000          0.00000000          7.08647297
     9         -0.00000000         -0.00000000         -4.62982901

 Electric dipole moment (dipole orientation):
 (Debye = 10**-18 statcoulomb cm , SI units = C m)
                  (au)            (Debye)         (10**-30 SI)
   Tot        0.483847D+00      0.122982D+01      0.410222D+01
   x          0.000000D+00      0.000000D+00      0.000000D+00
   y          0.000000D+00      0.000000D+00      0.000000D+00
   z          0.483847D+00      0.122982D+01      0.410222D+01

 Dipole polarizability, Alpha (dipole orientation).
 (esu units = cm**3 , SI units = C**2 m**2 J**-1)
 Alpha(0;0):
               (au)            (10**-24 esu)      (10**-40 SI)
   iso        0.112924D+02      0.167336D+01      0.186186D+01
   aniso      0.277941D+02      0.411867D+01      0.458263D+01
   xx         0.202767D+01      0.300470D+00      0.334318D+00
   yx         0.000000D+00      0.000000D+00      0.000000D+00
   yy         0.202767D+01      0.300470D+00      0.334318D+00
   zx         0.000000D+00      0.000000D+00      0.000000D+00
   zy         0.000000D+00      0.000000D+00      0.000000D+00
   zz         0.298218D+02      0.441914D+01      0.491695D+01

 ----------------------------------------------------------------------
 Unable to Open any file for archive entry.
 1\1\GINC-DESKTOP-B3RIHJD\Freq\UB3LYP\6-311G(d,p)\F1H2(2)\GARYX\22-Aug-
 2025\0\\# sp b3lyp/6-311g** Force nosymm scf=(qc)\\Title Card Required
 \\0,2\H,0.,0.,0.\H,-3.75,0.,0.\F,2.45,0.,0.\\Version=ES64L-G16RevC.01\
 HF=-100.768471\S2=1.595986\S2-1=0.\S2A=0.751945\RMSD=1.403e-10\RMSF=5.
 920e-03\ZeroPoint=0.0011707\Thermal=0.0044848\ETot=-100.7639862\HTot=-
 100.7630421\GTot=-100.7887806\Dipole=-0.4838467,0.,0.\DipoleDeriv=-0.2
 888972,0.,0.,0.,0.1028863,0.,0.,0.,0.1028863,-0.0034388,0.,0.,0.,0.000
 6261,0.,0.,0.,0.0006261,0.2923359,0.,0.,0.,-0.1035124,0.,0.,0.,-0.1035
 124\Polar=29.821812,0.,2.0276708,0.,0.,2.0276708\Quadrupole=-0.9248618
 ,0.4624309,0.4624309,0.,0.,0.\PG=C*V [C*(H1H1F1)]\NImag=2\\-0.01517232
 ,0.,0.00274995,0.,0.,0.00274995,0.00032720,0.,0.,-0.00030783,0.,-0.000
 03512,0.,0.,0.00003499,0.,0.,-0.00003512,0.,0.,0.00003499,0.01484511,0
 .,0.,-0.00001938,0.,0.,-0.01482574,0.,-0.00271483,0.,0.,0.00000013,0.,
 0.,0.00271470,0.,0.,-0.00271483,0.,0.,0.00000013,0.,0.,0.00271470\\-0.
 01243154,0.,0.,-0.00024774,0.,0.,0.01267929,0.,0.\\\@
 The archive entry for this job was punched.


 FROM AN ANONYMOUS WRITER, ON PERSPECTIVE:

 MAN, DESPITE HIS ARTISTIC PRETENSIONS, HIS SOPHISTICATION AND MANY 
 ACCOMPLISHMENTS, OWES THE FACT OF HIS EXISTENCE TO A SIX-INCH LAYER OF 
 TOPSOIL AND THE FACT THAT IT RAINS.
 Job cpu time:       0 days  0 hours  0 minutes 18.4 seconds.
 Elapsed time:       0 days  0 hours  0 minutes  2.5 seconds.
 File lengths (MBytes):  RWF=      6 Int=      0 D2E=      0 Chk=      1 Scr=      1
 Normal termination of Gaussian 16 at Fri Aug 22 17:39:58 2025.
