 Entering Gaussian System, Link 0=g16
 Initial command:
 /home/garyx/gaussian/g16/l1.exe "/tmp/gaussian_scratch/Gau-759008.inp" -scrdir="/tmp/gaussian_scratch/"
 Entering Link 1 = /home/garyx/gaussian/g16/l1.exe PID=    759010.
  
 Copyright (c) 1988-2019, Gaussian, Inc.  All Rights Reserved.
  
 This is part of the Gaussian(R) 16 program.  It is based on
 the Gaussian(R) 09 system (copyright 2009, Gaussian, Inc.),
 the Gaussian(R) 03 system (copyright 2003, Gaussian, Inc.),
 the Gaussian(R) 98 system (copyright 1998, Gaussian, Inc.),
 the Gaussian(R) 94 system (copyright 1995, Gaussian, Inc.),
 the Gaussian 92(TM) system (copyright 1992, Gaussian, Inc.),
 the Gaussian 90(TM) system (copyright 1990, Gaussian, Inc.),
 the Gaussian 88(TM) system (copyright 1988, Gaussian, Inc.),
 the Gaussian 86(TM) system (copyright 1986, Carnegie Mellon
 University), and the Gaussian 82(TM) system (copyright 1983,
 Carnegie Mellon University). Gaussian is a federally registered
 trademark of Gaussian, Inc.
  
 This software contains proprietary and confidential information,
 including trade secrets, belonging to Gaussian, Inc.
  
 This software is provided under written license and may be
 used, copied, transmitted, or stored only in accord with that
 written license.
  
 The following legend is applicable only to US Government
 contracts under FAR:
  
                    RESTRICTED RIGHTS LEGEND
  
 Use, reproduction and disclosure by the US Government is
 subject to restrictions as set forth in subparagraphs (a)
 and (c) of the Commercial Computer Software - Restricted
 Rights clause in FAR 52.227-19.
  
 Gaussian, Inc.
 340 Quinnipiac St., Bldg. 40, Wallingford CT 06492
  
  
 ---------------------------------------------------------------
 Warning -- This program may not be used in any manner that
 competes with the business of Gaussian, Inc. or will provide
 assistance to any competitor of Gaussian, Inc.  The licensee
 of this program is prohibited from giving any competitor of
 Gaussian, Inc. access to this program.  By using this program,
 the user acknowledges that Gaussian, Inc. is engaged in the
 business of creating and licensing software in the field of
 computational chemistry and represents and warrants to the
 licensee that it is not a competitor of Gaussian, Inc. and that
 it will not use this program in any manner prohibited above.
 ---------------------------------------------------------------
  

 Cite this work as:
 Gaussian 16, Revision C.01,
 M. J. Frisch, G. W. Trucks, H. B. Schlegel, G. E. Scuseria, 
 M. A. Robb, J. R. Cheeseman, G. Scalmani, V. Barone, 
 G. A. Petersson, H. Nakatsuji, X. Li, M. Caricato, A. V. Marenich, 
 J. Bloino, B. G. Janesko, R. Gomperts, B. Mennucci, H. P. Hratchian, 
 J. V. Ortiz, A. F. Izmaylov, J. L. Sonnenberg, D. Williams-Young, 
 F. Ding, F. Lipparini, F. Egidi, J. Goings, B. Peng, A. Petrone, 
 T. Henderson, D. Ranasinghe, V. G. Zakrzewski, J. Gao, N. Rega, 
 G. Zheng, W. Liang, M. Hada, M. Ehara, K. Toyota, R. Fukuda, 
 J. Hasegawa, M. Ishida, T. Nakajima, Y. Honda, O. Kitao, H. Nakai, 
 T. Vreven, K. Throssell, J. A. Montgomery, Jr., J. E. Peralta, 
 F. Ogliaro, M. J. Bearpark, J. J. Heyd, E. N. Brothers, K. N. Kudin, 
 V. N. Staroverov, T. A. Keith, R. Kobayashi, J. Normand, 
 K. Raghavachari, A. P. Rendell, J. C. Burant, S. S. Iyengar, 
 J. Tomasi, M. Cossi, J. M. Millam, M. Klene, C. Adamo, R. Cammi, 
 J. W. Ochterski, R. L. Martin, K. Morokuma, O. Farkas, 
 J. B. Foresman, and D. J. Fox, Gaussian, Inc., Wallingford CT, 2019.
 
 ******************************************
 Gaussian 16:  ES64L-G16RevC.01  3-Jul-2019
                22-Aug-2025 
 ******************************************
 %mem=10GB
 %nprocs=8
 Will use up to    8 processors via shared memory.
 -----------------------------------------
 # sp b3lyp/6-311g** Force nosymm scf=(qc)
 -----------------------------------------
 1/10=4,30=1,38=1/1,3;
 2/12=2,15=1,17=6,18=5,40=1/2;
 3/5=4,6=6,7=101,11=2,25=1,30=1,71=2,74=-5,140=1/1,2,3;
 4//1;
 5/5=2,8=3,38=5,98=1/8;
 8/6=4,10=90,11=11/1;
 11/6=1,8=1,9=11,15=111,16=1,31=1/1,2,10;
 10/6=1,31=1/2;
 6/7=2,8=2,9=2,10=2,28=1/1;
 7/8=1,10=1,25=1,30=1/1,2,3,16;
 1/10=4,30=1/3;
 99//99;
 -------------------
 Title Card Required
 -------------------
 Symbolic Z-matrix:
 Charge =  0 Multiplicity = 2
 H                     0.        0.        0. 
 H                    -2.65      0.        0. 
 F                     2.95      0.        0. 
 

 GradGradGradGradGradGradGradGradGradGradGradGradGradGradGradGradGradGrad
 Berny optimization.
 Initialization pass.
 Trust Radius=3.00D-01 FncErr=1.00D-07 GrdErr=1.00D-07 EigMax=2.50D+02 EigMin=1.00D-04
 Number of steps in this run=      2 maximum allowed number of steps=      2.
 GradGradGradGradGradGradGradGradGradGradGradGradGradGradGradGradGradGrad

                          Input orientation:                          
 ---------------------------------------------------------------------
 Center     Atomic      Atomic             Coordinates (Angstroms)
 Number     Number       Type             X           Y           Z
 ---------------------------------------------------------------------
      1          1           0        0.000000    0.000000    0.000000
      2          1           0       -2.650000    0.000000    0.000000
      3          9           0        2.950000    0.000000    0.000000
 ---------------------------------------------------------------------
                    Distance matrix (angstroms):
                    1          2          3
     1  H    0.000000
     2  H    2.650000   0.000000
     3  F    2.950000   5.600000   0.000000
 Symmetry turned off by external request.
 Stoichiometry    FH2(2)
 Framework group  C*V[C*(HHF)]
 Deg. of freedom     2
 Full point group                 C*V     NOp   4
 Rotational constants (GHZ):           0.0000000          13.7172492          13.7172492
 Standard basis: 6-311G(d,p) (5D, 7F)
    30 basis functions,    48 primitive gaussians,    31 cartesian basis functions
     6 alpha electrons        5 beta electrons
       nuclear repulsion energy         2.6645918368 Hartrees.
 NAtoms=    3 NActive=    3 NUniq=    3 SFac= 1.00D+00 NAtFMM=   60 NAOKFM=F Big=F
 Integral buffers will be    131072 words long.
 Raffenetti 2 integral format.
 Two-electron integral symmetry is turned off.
 One-electron integrals computed using PRISM.
 NBasis=    30 RedAO= T EigKep=  8.81D-02  NBF=    30
 NBsUse=    30 1.00D-06 EigRej= -1.00D+00 NBFU=    30
 ExpMin= 1.03D-01 ExpMax= 1.14D+04 ExpMxC= 1.72D+03 IAcc=3 IRadAn=         5 AccDes= 0.00D+00
 Harris functional with IExCor=  402 and IRadAn=       5 diagonalized for initial guess.
 HarFok:  IExCor=  402 AccDes= 0.00D+00 IRadAn=         5 IDoV= 1 UseB2=F ITyADJ=14
 ICtDFT=  3500011 ScaDFX=  1.000000  1.000000  1.000000  1.000000
 FoFCou: FMM=F IPFlag=           0 FMFlag=      100000 FMFlg1=           0
         NFxFlg=           0 DoJE=T BraDBF=F KetDBF=T FulRan=T
         wScrn=  0.000000 ICntrl=       500 IOpCl=  0 I1Cent=   200000004 NGrid=           0
         NMat0=    1 NMatS0=      1 NMatT0=    0 NMatD0=    1 NMtDS0=    0 NMtDT0=    0
 Symmetry not used in FoFCou.
 Initial guess <Sx>= 0.0000 <Sy>= 0.0000 <Sz>= 0.5000 <S**2>= 0.7500 S= 0.5000
 Keep R1 and R2 ints in memory in canonical form, NReq=7127049.
 Gradient too large for Newton-Raphson -- use scaled steepest descent instead.
  Beta Gap=    -0.526 HL deriv= 2.55D-15 Rot set to   8.37D-01
     Minimum is close to point  3 DX=  1.93D-02 DF= -4.40D-04 DXR=  4.61D-02 DFR=  2.83D-03 which will be used.
 Gradient too large for Newton-Raphson -- use scaled steepest descent instead.
 Gradient too large for Newton-Raphson -- use scaled steepest descent instead.
     Accept linear search using points  1 and  2.
 Gradient too large for Newton-Raphson -- use scaled steepest descent instead.
 Gradient too large for Newton-Raphson -- use scaled steepest descent instead.
     Accept linear search using points  1 and  2.
 Gradient too large for Newton-Raphson -- use scaled steepest descent instead.
     Accept linear search using points  1 and  2.
 Gradient too large for Newton-Raphson -- use scaled steepest descent instead.
     Accept linear search using points  1 and  2.
 Gradient too large for Newton-Raphson -- use scaled steepest descent instead.
     Accept linear search using points  5 and  6.
 Gradient too large for Newton-Raphson -- use scaled steepest descent instead.
     Accept linear search using points  1 and  2.
 Gradient too large for Newton-Raphson -- use scaled steepest descent instead.
     Accept linear search using points  2 and  3.
 Gradient too large for Newton-Raphson -- use scaled steepest descent instead.
     Minimum is close to point  2 DX=  6.59D-02 DF= -5.72D-07 DXR=  7.61D-02 DFR=  5.82D-03 which will be used.
 LinEq1:  Iter=  0 NonCon=     1 RMS=1.05D-03 Max=1.59D-02 NDo=     1
 AX will form     1 AO Fock derivatives at one time.
 LinEq1:  Iter=  1 NonCon=     1 RMS=3.20D-04 Max=2.51D-03 NDo=     1
 LinEq1:  Iter=  2 NonCon=     1 RMS=3.39D-04 Max=4.48D-03 NDo=     1
 LinEq1:  Iter=  3 NonCon=     1 RMS=7.04D-05 Max=7.31D-04 NDo=     1
 LinEq1:  Iter=  4 NonCon=     1 RMS=7.01D-06 Max=8.00D-05 NDo=     1
 LinEq1:  Iter=  5 NonCon=     1 RMS=1.03D-06 Max=8.51D-06 NDo=     1
 LinEq1:  Iter=  6 NonCon=     1 RMS=2.19D-07 Max=2.38D-06 NDo=     1
 LinEq1:  Iter=  7 NonCon=     1 RMS=2.71D-08 Max=3.40D-07 NDo=     1
 LinEq1:  Iter=  8 NonCon=     1 RMS=4.46D-09 Max=6.01D-08 NDo=     1
 LinEq1:  Iter=  9 NonCon=     1 RMS=1.94D-09 Max=1.68D-08 NDo=     1
 LinEq1:  Iter= 10 NonCon=     0 RMS=3.08D-10 Max=1.51D-09 NDo=     1
 Linear equations converged to 1.640D-09 1.640D-08 after    10 iterations.
 Incorrect curvature in search direction -- initial direction reversed.
     Accept linear search using points  1 and  2.
 Gradient too large for Newton-Raphson -- use scaled steepest descent instead.
     Accept linear search using points  1 and  2.
     Minimum is close to point  2 DX= -8.97D-02 DF= -3.37D-06 DXR=  9.85D-02 DFR=  9.80D-03 which will be used.
 Gradient too large for Newton-Raphson -- use scaled steepest descent instead.
     Accept linear search using points  1 and  2.
 LinEq1:  Iter=  0 NonCon=     1 RMS=3.82D-04 Max=5.72D-03 NDo=     1
 LinEq1:  Iter=  1 NonCon=     1 RMS=1.04D-04 Max=8.05D-04 NDo=     1
 LinEq1:  Iter=  2 NonCon=     1 RMS=1.63D-04 Max=2.22D-03 NDo=     1
 LinEq1:  Iter=  3 NonCon=     1 RMS=9.92D-06 Max=1.15D-04 NDo=     1
 LinEq1:  Iter=  4 NonCon=     1 RMS=1.55D-06 Max=1.20D-05 NDo=     1
 LinEq1:  Iter=  5 NonCon=     1 RMS=1.42D-07 Max=1.49D-06 NDo=     1
 LinEq1:  Iter=  6 NonCon=     1 RMS=1.48D-08 Max=1.25D-07 NDo=     1
 LinEq1:  Iter=  7 NonCon=     1 RMS=6.48D-09 Max=8.53D-08 NDo=     1
 LinEq1:  Iter=  8 NonCon=     1 RMS=2.99D-09 Max=2.20D-08 NDo=     1
 LinEq1:  Iter=  9 NonCon=     0 RMS=3.29D-10 Max=2.20D-09 NDo=     1
 Linear equations converged to 1.640D-09 1.640D-08 after     9 iterations.
 Gradient too large for Newton-Raphson -- use scaled steepest descent instead.
     Accept linear search using points  2 and  3.
 LinEq1:  Iter=  0 NonCon=     1 RMS=2.41D-04 Max=3.73D-03 NDo=     1
 LinEq1:  Iter=  1 NonCon=     1 RMS=2.32D-04 Max=3.20D-03 NDo=     1
 LinEq1:  Iter=  2 NonCon=     1 RMS=4.44D-05 Max=3.16D-04 NDo=     1
 LinEq1:  Iter=  3 NonCon=     1 RMS=3.46D-06 Max=3.22D-05 NDo=     1
 LinEq1:  Iter=  4 NonCon=     1 RMS=5.41D-07 Max=3.77D-06 NDo=     1
 LinEq1:  Iter=  5 NonCon=     1 RMS=1.05D-07 Max=9.38D-07 NDo=     1
 LinEq1:  Iter=  6 NonCon=     1 RMS=2.62D-08 Max=2.56D-07 NDo=     1
 LinEq1:  Iter=  7 NonCon=     1 RMS=3.97D-09 Max=4.57D-08 NDo=     1
 LinEq1:  Iter=  8 NonCon=     1 RMS=1.70D-09 Max=1.93D-08 NDo=     1
 LinEq1:  Iter=  9 NonCon=     0 RMS=2.33D-10 Max=2.13D-09 NDo=     1
 Linear equations converged to 1.640D-09 1.640D-08 after     9 iterations.
     Accept linear search using points  1 and  2.
 LinEq1:  Iter=  0 NonCon=     1 RMS=2.87D-04 Max=3.65D-03 NDo=     1
 LinEq1:  Iter=  1 NonCon=     1 RMS=1.21D-04 Max=1.13D-03 NDo=     1
 LinEq1:  Iter=  2 NonCon=     1 RMS=1.13D-04 Max=1.45D-03 NDo=     1
 LinEq1:  Iter=  3 NonCon=     1 RMS=2.32D-05 Max=1.75D-04 NDo=     1
 LinEq1:  Iter=  4 NonCon=     1 RMS=2.03D-06 Max=1.41D-05 NDo=     1
 LinEq1:  Iter=  5 NonCon=     1 RMS=4.46D-07 Max=4.00D-06 NDo=     1
 LinEq1:  Iter=  6 NonCon=     1 RMS=8.74D-08 Max=9.21D-07 NDo=     1
 LinEq1:  Iter=  7 NonCon=     1 RMS=1.37D-08 Max=1.36D-07 NDo=     1
 LinEq1:  Iter=  8 NonCon=     1 RMS=1.75D-09 Max=1.46D-08 NDo=     1
 LinEq1:  Iter=  9 NonCon=     0 RMS=2.09D-10 Max=2.07D-09 NDo=     1
 Linear equations converged to 1.640D-09 1.640D-08 after     9 iterations.
 LinEq1:  Iter=  0 NonCon=     1 RMS=3.38D-05 Max=3.21D-04 NDo=     1
 LinEq1:  Iter=  1 NonCon=     1 RMS=1.02D-05 Max=1.08D-04 NDo=     1
 LinEq1:  Iter=  2 NonCon=     1 RMS=7.28D-06 Max=5.80D-05 NDo=     1
 LinEq1:  Iter=  3 NonCon=     1 RMS=2.23D-06 Max=1.90D-05 NDo=     1
 LinEq1:  Iter=  4 NonCon=     1 RMS=3.09D-07 Max=1.91D-06 NDo=     1
 LinEq1:  Iter=  5 NonCon=     1 RMS=4.71D-08 Max=4.31D-07 NDo=     1
 LinEq1:  Iter=  6 NonCon=     1 RMS=8.27D-09 Max=8.65D-08 NDo=     1
 LinEq1:  Iter=  7 NonCon=     1 RMS=1.79D-09 Max=1.49D-08 NDo=     1
 LinEq1:  Iter=  8 NonCon=     0 RMS=1.94D-10 Max=1.90D-09 NDo=     1
 Linear equations converged to 1.640D-09 1.640D-08 after     8 iterations.
     Accept linear search using points  1 and  2.
     Minimum is close to point  2 DX= -1.33D-02 DF= -9.46D-11 DXR=  1.35D-02 DFR=  1.84D-04 which will be used.
 LinEq1:  Iter=  0 NonCon=     1 RMS=6.50D-07 Max=8.82D-06 NDo=     1
 LinEq1:  Iter=  1 NonCon=     1 RMS=3.20D-07 Max=3.36D-06 NDo=     1
 LinEq1:  Iter=  2 NonCon=     1 RMS=2.07D-07 Max=2.37D-06 NDo=     1
 LinEq1:  Iter=  3 NonCon=     1 RMS=4.57D-08 Max=3.68D-07 NDo=     1
 LinEq1:  Iter=  4 NonCon=     1 RMS=4.50D-09 Max=3.28D-08 NDo=     1
 LinEq1:  Iter=  5 NonCon=     1 RMS=1.01D-09 Max=9.01D-09 NDo=     1
 LinEq1:  Iter=  6 NonCon=     1 RMS=2.02D-10 Max=2.13D-09 NDo=     1
 LinEq1:  Iter=  7 NonCon=     0 RMS=3.23D-11 Max=3.18D-10 NDo=     1
 Linear equations converged to 1.630D-10 1.630D-09 after     7 iterations.
 SCF Done:  E(UB3LYP) =  -100.763898828     a.u. after   21 cycles
            Convg  =    0.8043D-07                   105 Fock formations.
              S**2 =  1.6543                  -V/T =  2.0017
 <Sx>= 0.0000 <Sy>= 0.0000 <Sz>= 0.5000 <S**2>= 1.6543 S= 0.8800
 <L.S>=  0.00000000000    
 Annihilation of the first spin contaminant:
 S**2 before annihilation     1.6543,   after     0.7525
 DoSCS=F DFT=T ScalE2(SS,OS)=  1.000000  1.000000
 Range of M.O.s used for correlation:     1    30
 NBasis=    30 NAE=     6 NBE=     5 NFC=     0 NFV=     0
 NROrb=     30 NOA=     6 NOB=     5 NVA=    24 NVB=    25

 **** Warning!!: The smallest beta delta epsilon is  0.91996062D-01

 Symmetrizing basis deriv contribution to polar:
 IMax=3 JMax=2 DiffMx= 0.00D+00
 G2DrvN: will do     4 centers at a time, making    1 passes.
 Calling FoFCou, ICntrl=  3107 FMM=F I1Cent=   0 AccDes= 0.00D+00.
 End of G2Drv F.D. properties file   721 does not exist.
 End of G2Drv F.D. properties file   722 does not exist.
 End of G2Drv F.D. properties file   788 does not exist.
          IDoAtm=111
          Differentiating once with respect to electric field.
                with respect to dipole field.
          Differentiating once with respect to nuclear coordinates.
 Keep R1 and R2 ints in memory in canonical form, NReq=7101519.
          There are    12 degrees of freedom in the 1st order CPHF.  IDoFFX=6 NUNeed=     3.
      9 vectors produced by pass  0 Test12= 2.24D-15 8.33D-09 XBig12= 1.76D+02 1.28D+01.
 AX will form     9 AO Fock derivatives at one time.
      9 vectors produced by pass  1 Test12= 2.24D-15 8.33D-09 XBig12= 5.47D+00 1.04D+00.
      9 vectors produced by pass  2 Test12= 2.24D-15 8.33D-09 XBig12= 5.08D-01 3.31D-01.
      7 vectors produced by pass  3 Test12= 2.24D-15 8.33D-09 XBig12= 2.67D-03 2.16D-02.
      7 vectors produced by pass  4 Test12= 2.24D-15 8.33D-09 XBig12= 2.31D-05 1.68D-03.
      4 vectors produced by pass  5 Test12= 2.24D-15 8.33D-09 XBig12= 6.15D-08 6.46D-05.
      1 vectors produced by pass  6 Test12= 2.24D-15 8.33D-09 XBig12= 7.22D-11 4.03D-06.
      1 vectors produced by pass  7 Test12= 2.24D-15 8.33D-09 XBig12= 6.71D-14 1.19D-07.
 InvSVY:  IOpt=1 It=  1 EMax= 2.71D-15
 Solved reduced A of dimension    47 with     9 vectors.
 Isotropic polarizability for W=    0.000000       14.91 Bohr**3.
 End of Minotr F.D. properties file   721 does not exist.
 End of Minotr F.D. properties file   722 does not exist.
 End of Minotr F.D. properties file   788 does not exist.

 **********************************************************************

            Population analysis using the SCF Density.

 **********************************************************************

 Alpha  occ. eigenvalues --  -24.73949  -1.20016  -0.53066  -0.44558  -0.44558
 Alpha  occ. eigenvalues --   -0.32988
 Alpha virt. eigenvalues --   -0.10119   0.25152   0.33964   0.89679   0.92360
 Alpha virt. eigenvalues --    0.92360   1.04251   1.24613   1.24613   1.26348
 Alpha virt. eigenvalues --    1.40647   1.40647   1.41816   2.15599   2.37260
 Alpha virt. eigenvalues --    3.67298   3.69349   3.69349   3.76116   3.76116
 Alpha virt. eigenvalues --    5.89458   5.95555   5.95555  66.49222
  Beta  occ. eigenvalues --  -24.70932  -1.11374  -0.41539  -0.41539  -0.33908
  Beta virt. eigenvalues --   -0.24708  -0.08732   0.25314   0.35413   0.93817
  Beta virt. eigenvalues --    0.93817   0.98368   1.08096   1.23529   1.23529
  Beta virt. eigenvalues --    1.25259   1.42875   1.42875   1.43745   2.16350
  Beta virt. eigenvalues --    2.37903   3.77678   3.77678   3.78732   3.78732
  Beta virt. eigenvalues --    3.80648   5.98113   5.98113   6.02956  66.52221
          Condensed to atoms (all electrons):
               1          2          3
     1  H    0.944085   0.013137   0.007076
     2  H    0.013137   0.982653  -0.000001
     3  F    0.007076  -0.000001   9.032838
          Atomic-Atomic Spin Densities.
               1          2          3
     1  H   -0.935152   0.002428  -0.003827
     2  H    0.002428   0.978456  -0.000003
     3  F   -0.003827  -0.000003   0.959500
 Mulliken charges and spin densities:
               1          2
     1  H    0.035702  -0.936551
     2  H    0.004211   0.980881
     3  F   -0.039913   0.955670
 Sum of Mulliken charges =  -0.00000   1.00000
 Mulliken charges and spin densities with hydrogens summed into heavy atoms:
               1          2
     3  F   -0.000000   1.000000
 APT charges:
               1
     1  H   -0.043504
     2  H   -0.002372
     3  F    0.045875
 Sum of APT charges =  -0.00000
 APT charges with hydrogens summed into heavy atoms:
               1
     3  F   -0.000000
 Electronic spatial extent (au):  <R**2>=            322.1762
 Charge=             -0.0000 electrons
 Dipole moment (field-independent basis, Debye):
    X=             -0.6574    Y=             -0.0000    Z=             -0.0000  Tot=              0.6574
 Quadrupole moment (field-independent basis, Debye-Ang):
   XX=             -8.1326   YY=             -7.6379   ZZ=             -7.6379
   XY=             -0.0000   XZ=             -0.0000   YZ=              0.0000
 Traceless Quadrupole moment (field-independent basis, Debye-Ang):
   XX=             -0.3298   YY=              0.1649   ZZ=              0.1649
   XY=             -0.0000   XZ=             -0.0000   YZ=              0.0000
 Octapole moment (field-independent basis, Debye-Ang**2):
  XXX=            -30.6550  YYY=             -0.0000  ZZZ=             -0.0000  XYY=            -10.7082
  XXY=             -0.0000  XXZ=             -0.0000  XZZ=            -10.7082  YZZ=             -0.0000
  YYZ=             -0.0000  XYZ=              0.0000
 Hexadecapole moment (field-independent basis, Debye-Ang**3):
 XXXX=           -285.4823 YYYY=             -6.3687 ZZZZ=             -6.3687 XXXY=             -0.0000
 XXXZ=             -0.0000 YYYX=             -0.0000 YYYZ=             -0.0000 ZZZX=             -0.0000
 ZZZY=             -0.0000 XXYY=            -54.2084 XXZZ=            -54.2084 YYZZ=             -2.1229
 XXYZ=              0.0000 YYXZ=             -0.0000 ZZXY=             -0.0000
 N-N= 2.664591836817D+00 E-N=-2.463781070920D+02  KE= 1.005901012268D+02
  Exact polarizability:      40.683      -0.000       2.017      -0.000      -0.000       2.017
 Approx polarizability:      38.431      -0.000       1.922      -0.000       0.000       1.922
                          Isotropic Fermi Contact Couplings
        Atom                 a.u.       MegaHertz       Gauss      10(-4) cm-1
     1  H(1)              -0.28053   -1253.93946    -447.43678    -418.26918
     2  H(1)               0.29154    1303.16229     465.00071     434.68815
     3  F(19)              0.02688     113.08425      40.35127      37.72085
 --------------------------------------------------------
       Center         ----  Spin Dipole Couplings  ----
                      3XX-RR        3YY-RR        3ZZ-RR
 --------------------------------------------------------
     1   Atom        0.027550     -0.013775     -0.013775
     2   Atom       -0.012828      0.006414      0.006414
     3   Atom        6.028714     -3.014357     -3.014357
 --------------------------------------------------------
                        XY            XZ            YZ
 --------------------------------------------------------
     1   Atom        0.000000      0.000000     -0.000000
     2   Atom        0.000000      0.000000     -0.000000
     3   Atom       -0.000001     -0.000002     -0.000000
 --------------------------------------------------------


 ---------------------------------------------------------------------------------
              Anisotropic Spin Dipole Couplings in Principal Axis System
 ---------------------------------------------------------------------------------

       Atom             a.u.   MegaHertz   Gauss  10(-4) cm-1        Axes

              Baa    -0.0138    -7.350    -2.623    -2.452 -0.0000  0.2393  0.9710
     1 H(1)   Bbb    -0.0138    -7.350    -2.623    -2.452  0.0000  0.9710 -0.2393
              Bcc     0.0276    14.699     5.245     4.903  1.0000  0.0000  0.0000
 
              Baa    -0.0128    -6.845    -2.442    -2.283  1.0000 -0.0000 -0.0000
     2 H(1)   Bbb     0.0064     3.422     1.221     1.142  0.0000  0.2350  0.9720
              Bcc     0.0064     3.422     1.221     1.142 -0.0000  0.9720 -0.2350
 
              Baa    -3.0144 -1513.887  -540.193  -504.978  0.0000  0.2351  0.9720
     3 F(19)  Bbb    -3.0144 -1513.887  -540.193  -504.978  0.0000  0.9720 -0.2351
              Bcc     6.0287  3027.775  1080.385  1009.957  1.0000 -0.0000 -0.0000
 

 ---------------------------------------------------------------------------------

 Calling FoFJK, ICntrl=    100127 FMM=F ISym2X=0 I1Cent= 0 IOpClX= 1 NMat=1 NMatS=1 NMatT=0.
 Full mass-weighted force constant matrix:
 Low frequencies --- -601.1414 -234.5731   -0.0025   -0.0023   -0.0020   89.7290
 Low frequencies ---   89.7290  225.8460  225.8460
 ******    2 imaginary frequencies (negative Signs) ****** 
 Diagonal vibrational polarizability:
        9.8477211       0.5591081       0.5591081
 Harmonic frequencies (cm**-1), IR intensities (KM/Mole), Raman scattering
 activities (A**4/AMU), depolarization ratios for plane and unpolarized
 incident light, reduced masses (AMU), force constants (mDyne/A),
 and normal coordinates:
                      1                      2                      3
                      A                      A                      A
 Frequencies --   -601.1414              -234.5731               225.3519
 Red. masses --      1.0133                 1.1020                 1.0167
 Frc consts  --      0.2157                 0.0357                 0.0304
 IR Inten    --     28.7360                15.7598                 1.0551
  Atom  AN      X      Y      Z        X      Y      Z        X      Y      Z
     1   1     0.85   0.00   0.00     0.50   0.00   0.00     0.00   0.86  -0.21
     2   1    -0.52  -0.00  -0.00     0.86  -0.00  -0.00    -0.00  -0.45   0.11
     3   9    -0.02  -0.00  -0.00    -0.07  -0.00  -0.00    -0.00  -0.02   0.01
                      4
                      A
 Frequencies --    225.3519
 Red. masses --      1.0167
 Frc consts  --      0.0304
 IR Inten    --      1.0551
  Atom  AN      X      Y      Z
     1   1    -0.00   0.21   0.86
     2   1    -0.00  -0.11  -0.45
     3   9     0.00  -0.01  -0.02

 -------------------
 - Thermochemistry -
 -------------------
 Temperature   298.150 Kelvin.  Pressure   1.00000 Atm.
 Atom     1 has atomic number  1 and mass   1.00783
 Atom     2 has atomic number  1 and mass   1.00783
 Atom     3 has atomic number  9 and mass  18.99840
 Molecular mass:    21.01405 amu.
 Principal axes and moments of inertia in atomic units:
                           1         2         3
     Eigenvalues --     0.00000 131.56728 131.56728
           X            1.00000  -0.00000   0.00000
           Y            0.00000   1.00000   0.00000
           Z            0.00000   0.00000   1.00000
 This molecule is a prolate symmetric top.
 Rotational symmetry number  1.
 Rotational temperature (Kelvin)      0.65832
 Rotational constant (GHZ):          13.717249
    2 imaginary frequencies ignored.
 Zero-point vibrational energy       2695.8 (Joules/Mol)
                                    0.64431 (Kcal/Mol)
 Warning -- explicit consideration of   2 degrees of freedom as
           vibrations may cause significant error
 Vibrational temperatures:    324.23   324.23
          (Kelvin)
 
 Zero-point correction=                           0.001027 (Hartree/Particle)
 Thermal correction to Energy=                    0.004431
 Thermal correction to Enthalpy=                  0.005376
 Thermal correction to Gibbs Free Energy=        -0.020480
 Sum of electronic and zero-point Energies=           -100.762872
 Sum of electronic and thermal Energies=              -100.759467
 Sum of electronic and thermal Enthalpies=            -100.758523
 Sum of electronic and thermal Free Energies=         -100.784379
 
                     E (Thermal)             CV                S
                      KCal/Mol        Cal/Mol-Kelvin    Cal/Mol-Kelvin
 Total                    2.781              8.573             54.417
 Electronic               0.000              0.000              1.377
 Translational            0.889              2.981             35.068
 Rotational               0.592              1.987             14.140
 Vibrational              1.300              3.605              3.831
 Vibration     1          0.650              1.802              1.916
 Vibration     2          0.650              1.802              1.916
                       Q            Log10(Q)             Ln(Q)
 Total Bot       0.263038D+10          9.420018         21.690393
 Total V=0       0.780374D+10          9.892303         22.777869
 Vib (Bot)       0.766963D+00         -0.115226         -0.265317
 Vib (Bot)    1  0.875764D+00         -0.057613         -0.132658
 Vib (Bot)    2  0.875764D+00         -0.057613         -0.132659
 Vib (V=0)       0.227541D+01          0.357059          0.822160
 Vib (V=0)    1  0.150845D+01          0.178530          0.411080
 Vib (V=0)    2  0.150845D+01          0.178530          0.411080
 Electronic      0.200000D+01          0.301030          0.693147
 Translational   0.378633D+07          6.578219         15.146908
 Rotational      0.452892D+03          2.655995          6.115655
 -------------------------------------------------------------------
 Center     Atomic                   Forces (Hartrees/Bohr)
 Number     Number              X              Y              Z
 -------------------------------------------------------------------
      1        1           0.000265371    0.000000000    0.000000000
      2        1           0.003716936    0.000000000    0.000000000
      3        9          -0.003982307   -0.000000000   -0.000000000
 -------------------------------------------------------------------
 Cartesian Forces:  Max     0.003982307 RMS     0.001817960

 GradGradGradGradGradGradGradGradGradGradGradGradGradGradGradGradGradGrad
 Berny optimization.
 Search for a local minimum.
 Step number   1 out of a maximum of    2
 All quantities printed in internal units (Hartrees-Bohrs-Radians)
 Second derivative matrix not updated -- analytic derivatives used.
 The second derivative matrix:
                          X1        Y1        Z1        X2        Y2
           X1          -0.01043
           Y1          -0.00000   0.00147
           Z1          -0.00000   0.00000   0.00147
           X2           0.00528   0.00000   0.00000  -0.00518
           Y2           0.00000  -0.00074   0.00000  -0.00000   0.00074
           Z2           0.00000   0.00000  -0.00074  -0.00000   0.00000
           X3           0.00515   0.00000   0.00000  -0.00010  -0.00000
           Y3           0.00000  -0.00073  -0.00000  -0.00000   0.00000
           Z3           0.00000  -0.00000  -0.00073  -0.00000  -0.00000
                          Z2        X3        Y3        Z3
           Z2           0.00074
           X3          -0.00000  -0.00505
           Y3          -0.00000  -0.00000   0.00073
           Z3           0.00000  -0.00000   0.00000   0.00073
 ITU=  0
     Eigenvalues ---   -0.01482  -0.00401   0.00208   0.00208
 Eigenvalue     1 is  -1.48D-02 should be greater than     0.000000 Eigenvector:
                          X1        X2        X3        Z1        Z2
   1                    0.90387  -0.39237  -0.17050   0.00000  -0.00000
                          Y1        Z3        Y2        Y3
   1                    0.00000  -0.00000  -0.00000  -0.00000
 Eigenvalue     2 is  -4.01D-03 should be greater than     0.000000 Eigenvector:
                          X2        X3        X1        Z1        Z2
   1                    0.86898  -0.39083   0.30351   0.00000  -0.00000
                          Y1        Z3        Y2        Y3
   1                    0.00000  -0.00000  -0.00000  -0.00000
 Quadratic step=1.214D+00 exceeds max=3.000D-01 adjusted using Lamda=-1.222D-02.
 Angle between NR and scaled steps=   2.09 degrees.
 Angle between quadratic step and forces=  26.24 degrees.
 Linear search not attempted -- first point.
 B after Tr=    -0.075844    0.000000   -0.000000
         Rot=    0.972138   -0.234410   -0.000000    0.000000 Ang= -27.11 deg.
 Variable       Old X    -DE/DX   Delta X   Delta X   Delta X     New X
                                 (Linear)    (Quad)   (Total)
    X1        0.00000   0.00027   0.00000   0.07295  -0.00289  -0.00289
    Y1        0.00000   0.00000   0.00000   0.00000  -0.00000  -0.00000
    Z1        0.00000   0.00000   0.00000   0.00000   0.00000   0.00000
    X2       -5.00777   0.00372   0.00000   0.26835   0.19250  -4.81527
    Y2        0.00000   0.00000   0.00000  -0.00000   0.00000   0.00000
    Z2        0.00000   0.00000   0.00000  -0.00000  -0.00000  -0.00000
    X3        5.57469  -0.00398   0.00000  -0.11377  -0.18961   5.38508
    Y3        0.00000  -0.00000   0.00000  -0.00000   0.00000   0.00000
    Z3        0.00000  -0.00000   0.00000  -0.00000  -0.00000  -0.00000
         Item               Value     Threshold  Converged?
 Maximum Force            0.003982     0.000450     NO 
 RMS     Force            0.001818     0.000300     NO 
 Maximum Displacement     0.192503     0.001800     NO 
 RMS     Displacement     0.090073     0.001200     NO 
 Predicted change in Energy=-1.653057D-03
 GradGradGradGradGradGradGradGradGradGradGradGradGradGradGradGradGradGrad


 ----------------------------------------------------------------------

 Electric dipole moment (input orientation):
 (Debye = 10**-18 statcoulomb cm , SI units = C m)
                  (au)            (Debye)         (10**-30 SI)
   Tot        0.258642D+00      0.657404D+00      0.219286D+01
   x         -0.258642D+00     -0.657404D+00     -0.219286D+01
   y          0.000000D+00      0.000000D+00      0.000000D+00
   z          0.000000D+00      0.000000D+00      0.000000D+00

 Dipole polarizability, Alpha (input orientation).
 (esu units = cm**3 , SI units = C**2 m**2 J**-1)
 Alpha(0;0):
               (au)            (10**-24 esu)      (10**-40 SI)
   iso        0.149053D+02      0.220874D+01      0.245755D+01
   aniso      0.386662D+02      0.572974D+01      0.637519D+01
   xx         0.406828D+02      0.602856D+01      0.670768D+01
   yx         0.000000D+00      0.000000D+00      0.000000D+00
   yy         0.201658D+01      0.298827D+00      0.332490D+00
   zx         0.000000D+00      0.000000D+00      0.000000D+00
   zy         0.000000D+00      0.000000D+00      0.000000D+00
   zz         0.201658D+01      0.298827D+00      0.332490D+00

 ----------------------------------------------------------------------

 Dipole orientation:
     1          0.00000000          0.00000000         -0.00000000
     1          0.00000000          0.00000000          5.00777423
     9         -0.00000000         -0.00000000         -5.57469207

 Electric dipole moment (dipole orientation):
 (Debye = 10**-18 statcoulomb cm , SI units = C m)
                  (au)            (Debye)         (10**-30 SI)
   Tot        0.258642D+00      0.657404D+00      0.219286D+01
   x          0.000000D+00      0.000000D+00      0.000000D+00
   y          0.000000D+00      0.000000D+00      0.000000D+00
   z          0.258642D+00      0.657404D+00      0.219286D+01

 Dipole polarizability, Alpha (dipole orientation).
 (esu units = cm**3 , SI units = C**2 m**2 J**-1)
 Alpha(0;0):
               (au)            (10**-24 esu)      (10**-40 SI)
   iso        0.149053D+02      0.220874D+01      0.245755D+01
   aniso      0.386662D+02      0.572974D+01      0.637519D+01
   xx         0.201658D+01      0.298827D+00      0.332490D+00
   yx         0.000000D+00      0.000000D+00      0.000000D+00
   yy         0.201658D+01      0.298827D+00      0.332490D+00
   zx         0.000000D+00      0.000000D+00      0.000000D+00
   zy         0.000000D+00      0.000000D+00      0.000000D+00
   zz         0.406828D+02      0.602856D+01      0.670768D+01

 ----------------------------------------------------------------------
 Unable to Open any file for archive entry.
 1\1\GINC-DESKTOP-B3RIHJD\Freq\UB3LYP\6-311G(d,p)\F1H2(2)\GARYX\22-Aug-
 2025\0\\# sp b3lyp/6-311g** Force nosymm scf=(qc)\\Title Card Required
 \\0,2\H,0.,0.,0.\H,-2.65,0.,0.\F,2.95,0.,0.\\Version=ES64L-G16RevC.01\
 HF=-100.7638988\S2=1.654303\S2-1=0.\S2A=0.752461\RMSD=4.904e-09\RMSF=1
 .818e-03\ZeroPoint=0.0010268\Thermal=0.0044314\ETot=-100.7594675\HTot=
 -100.7585233\GTot=-100.7843786\Dipole=-0.2586425,0.,0.\DipoleDeriv=-0.
 2076749,0.,0.,0.,0.0385822,0.,0.,0.,0.0385822,-0.015284,0.,0.,0.,0.004
 0844,0.,0.,0.,0.0040844,0.2229588,0.,0.,0.,-0.0426665,0.,0.,0.,-0.0426
 665\Polar=40.6827713,0.,2.0165837,-0.0000001,0.,2.0165837\Quadrupole=-
 0.2452035,0.1226018,0.1226018,0.,-0.0000001,0.\PG=C*V [C*(H1H1F1)]\NIm
 ag=2\\-0.01043320,0.,0.00147076,0.,0.,0.00147076,0.00528156,0.,0.,-0.0
 0518007,0.,-0.00074357,0.,0.,0.00074313,0.,0.,-0.00074357,0.,0.,0.0007
 4313,0.00515164,0.,0.,-0.00010148,0.,0.,-0.00505016,0.,-0.00072719,0.,
 0.,0.00000044,0.,0.,0.00072675,0.,0.,-0.00072719,0.,0.,0.00000044,0.,0
 .,0.00072675\\-0.00026537,0.,0.,-0.00371694,0.,0.,0.00398231,0.,0.\\\@
 The archive entry for this job was punched.


 GOORD'S AXIOM:  A MEETING IS AN EVENT AT WHICH
 THE MINUTES ARE KEPT AND THE HOURS ARE LOST.
 Job cpu time:       0 days  0 hours  0 minutes 23.6 seconds.
 Elapsed time:       0 days  0 hours  0 minutes  3.2 seconds.
 File lengths (MBytes):  RWF=      6 Int=      0 D2E=      0 Chk=      1 Scr=      1
 Normal termination of Gaussian 16 at Fri Aug 22 19:18:05 2025.
