 Entering Gaussian System, Link 0=g16
 Initial command:
 /home/garyx/gaussian/g16/l1.exe "/tmp/gaussian_scratch/Gau-1094797.inp" -scrdir="/tmp/gaussian_scratch/"
 Entering Link 1 = /home/garyx/gaussian/g16/l1.exe PID=   1094799.
  
 Copyright (c) 1988-2019, Gaussian, Inc.  All Rights Reserved.
  
 This is part of the Gaussian(R) 16 program.  It is based on
 the Gaussian(R) 09 system (copyright 2009, Gaussian, Inc.),
 the Gaussian(R) 03 system (copyright 2003, Gaussian, Inc.),
 the Gaussian(R) 98 system (copyright 1998, Gaussian, Inc.),
 the Gaussian(R) 94 system (copyright 1995, Gaussian, Inc.),
 the Gaussian 92(TM) system (copyright 1992, Gaussian, Inc.),
 the Gaussian 90(TM) system (copyright 1990, Gaussian, Inc.),
 the Gaussian 88(TM) system (copyright 1988, Gaussian, Inc.),
 the Gaussian 86(TM) system (copyright 1986, Carnegie Mellon
 University), and the Gaussian 82(TM) system (copyright 1983,
 Carnegie Mellon University). Gaussian is a federally registered
 trademark of Gaussian, Inc.
  
 This software contains proprietary and confidential information,
 including trade secrets, belonging to Gaussian, Inc.
  
 This software is provided under written license and may be
 used, copied, transmitted, or stored only in accord with that
 written license.
  
 The following legend is applicable only to US Government
 contracts under FAR:
  
                    RESTRICTED RIGHTS LEGEND
  
 Use, reproduction and disclosure by the US Government is
 subject to restrictions as set forth in subparagraphs (a)
 and (c) of the Commercial Computer Software - Restricted
 Rights clause in FAR 52.227-19.
  
 Gaussian, Inc.
 340 Quinnipiac St., Bldg. 40, Wallingford CT 06492
  
  
 ---------------------------------------------------------------
 Warning -- This program may not be used in any manner that
 competes with the business of Gaussian, Inc. or will provide
 assistance to any competitor of Gaussian, Inc.  The licensee
 of this program is prohibited from giving any competitor of
 Gaussian, Inc. access to this program.  By using this program,
 the user acknowledges that Gaussian, Inc. is engaged in the
 business of creating and licensing software in the field of
 computational chemistry and represents and warrants to the
 licensee that it is not a competitor of Gaussian, Inc. and that
 it will not use this program in any manner prohibited above.
 ---------------------------------------------------------------
  

 Cite this work as:
 Gaussian 16, Revision C.01,
 M. J. Frisch, G. W. Trucks, H. B. Schlegel, G. E. Scuseria, 
 M. A. Robb, J. R. Cheeseman, G. Scalmani, V. Barone, 
 G. A. Petersson, H. Nakatsuji, X. Li, M. Caricato, A. V. Marenich, 
 J. Bloino, B. G. Janesko, R. Gomperts, B. Mennucci, H. P. Hratchian, 
 J. V. Ortiz, A. F. Izmaylov, J. L. Sonnenberg, D. Williams-Young, 
 F. Ding, F. Lipparini, F. Egidi, J. Goings, B. Peng, A. Petrone, 
 T. Henderson, D. Ranasinghe, V. G. Zakrzewski, J. Gao, N. Rega, 
 G. Zheng, W. Liang, M. Hada, M. Ehara, K. Toyota, R. Fukuda, 
 J. Hasegawa, M. Ishida, T. Nakajima, Y. Honda, O. Kitao, H. Nakai, 
 T. Vreven, K. Throssell, J. A. Montgomery, Jr., J. E. Peralta, 
 F. Ogliaro, M. J. Bearpark, J. J. Heyd, E. N. Brothers, K. N. Kudin, 
 V. N. Staroverov, T. A. Keith, R. Kobayashi, J. Normand, 
 K. Raghavachari, A. P. Rendell, J. C. Burant, S. S. Iyengar, 
 J. Tomasi, M. Cossi, J. M. Millam, M. Klene, C. Adamo, R. Cammi, 
 J. W. Ochterski, R. L. Martin, K. Morokuma, O. Farkas, 
 J. B. Foresman, and D. J. Fox, Gaussian, Inc., Wallingford CT, 2019.
 
 ******************************************
 Gaussian 16:  ES64L-G16RevC.01  3-Jul-2019
                23-Aug-2025 
 ******************************************
 %mem=10GB
 %nprocs=8
 Will use up to    8 processors via shared memory.
 -----------------------------------------
 # sp b3lyp/6-311g** Force nosymm scf=(qc)
 -----------------------------------------
 1/10=4,30=1,38=1/1,3;
 2/12=2,15=1,17=6,18=5,40=1/2;
 3/5=4,6=6,7=101,11=2,25=1,30=1,71=2,74=-5,140=1/1,2,3;
 4//1;
 5/5=2,8=3,38=5,98=1/8;
 8/6=4,10=90,11=11/1;
 11/6=1,8=1,9=11,15=111,16=1,31=1/1,2,10;
 10/6=1,31=1/2;
 6/7=2,8=2,9=2,10=2,28=1/1;
 7/8=1,10=1,25=1,30=1/1,2,3,16;
 1/10=4,30=1/3;
 99//99;
 -------------------
 Title Card Required
 -------------------
 Symbolic Z-matrix:
 Charge =  0 Multiplicity = 2
 H                     0.        0.        0. 
 H                    -2.6       0.        0. 
 F                     3.75      0.        0. 
 

 GradGradGradGradGradGradGradGradGradGradGradGradGradGradGradGradGradGrad
 Berny optimization.
 Initialization pass.
 Trust Radius=3.00D-01 FncErr=1.00D-07 GrdErr=1.00D-07 EigMax=2.50D+02 EigMin=1.00D-04
 Number of steps in this run=      2 maximum allowed number of steps=      2.
 GradGradGradGradGradGradGradGradGradGradGradGradGradGradGradGradGradGrad

                          Input orientation:                          
 ---------------------------------------------------------------------
 Center     Atomic      Atomic             Coordinates (Angstroms)
 Number     Number       Type             X           Y           Z
 ---------------------------------------------------------------------
      1          1           0        0.000000    0.000000    0.000000
      2          1           0       -2.600000    0.000000    0.000000
      3          9           0        3.750000    0.000000    0.000000
 ---------------------------------------------------------------------
                    Distance matrix (angstroms):
                    1          2          3
     1  H    0.000000
     2  H    2.600000   0.000000
     3  F    3.750000   6.350000   0.000000
 Symmetry turned off by external request.
 Stoichiometry    FH2(2)
 Framework group  C*V[C*(HHF)]
 Deg. of freedom     2
 Full point group                 C*V     NOp   4
 Rotational constants (GHZ):           0.0000000          10.1319118          10.1319118
 Standard basis: 6-311G(d,p) (5D, 7F)
    30 basis functions,    48 primitive gaussians,    31 cartesian basis functions
     6 alpha electrons        5 beta electrons
       nuclear repulsion energy         2.2235699473 Hartrees.
 NAtoms=    3 NActive=    3 NUniq=    3 SFac= 1.00D+00 NAtFMM=   60 NAOKFM=F Big=F
 Integral buffers will be    131072 words long.
 Raffenetti 2 integral format.
 Two-electron integral symmetry is turned off.
 One-electron integrals computed using PRISM.
 NBasis=    30 RedAO= T EigKep=  8.91D-02  NBF=    30
 NBsUse=    30 1.00D-06 EigRej= -1.00D+00 NBFU=    30
 ExpMin= 1.03D-01 ExpMax= 1.14D+04 ExpMxC= 1.72D+03 IAcc=3 IRadAn=         5 AccDes= 0.00D+00
 Harris functional with IExCor=  402 and IRadAn=       5 diagonalized for initial guess.
 HarFok:  IExCor=  402 AccDes= 0.00D+00 IRadAn=         5 IDoV= 1 UseB2=F ITyADJ=14
 ICtDFT=  3500011 ScaDFX=  1.000000  1.000000  1.000000  1.000000
 FoFCou: FMM=F IPFlag=           0 FMFlag=      100000 FMFlg1=           0
         NFxFlg=           0 DoJE=T BraDBF=F KetDBF=T FulRan=T
         wScrn=  0.000000 ICntrl=       500 IOpCl=  0 I1Cent=   200000004 NGrid=           0
         NMat0=    1 NMatS0=      1 NMatT0=    0 NMatD0=    1 NMtDS0=    0 NMtDT0=    0
 Symmetry not used in FoFCou.
 Initial guess <Sx>= 0.0000 <Sy>= 0.0000 <Sz>= 0.5000 <S**2>= 0.7500 S= 0.5000
 Keep R1 and R2 ints in memory in canonical form, NReq=7127049.
 Gradient too large for Newton-Raphson -- use scaled steepest descent instead.
  Beta Gap=    -0.573 HL deriv= 3.99D-15 Rot set to   3.59D-01
     Minimum is close to point  3 DX=  4.19D-02 DF= -1.25D-03 DXR=  9.49D-02 DFR=  9.66D-03 which will be used.
 Gradient too large for Newton-Raphson -- use scaled steepest descent instead.
     Accept linear search using points  4 and  5.
 Gradient too large for Newton-Raphson -- use scaled steepest descent instead.
     Accept linear search using points  3 and  4.
 Gradient too large for Newton-Raphson -- use scaled steepest descent instead.
 Gradient too large for Newton-Raphson -- use scaled steepest descent instead.
     Minimum is close to point  3 DX=  7.78D-02 DF= -8.53D-05 DXR=  4.64D-02 DFR=  2.24D-03 which will be used.
 Gradient too large for Newton-Raphson -- use scaled steepest descent instead.
     Accept linear search using points  1 and  2.
 Gradient too large for Newton-Raphson -- use scaled steepest descent instead.
     Accept linear search using points  2 and  3.
 Gradient too large for Newton-Raphson -- use scaled steepest descent instead.
 Gradient too large for Newton-Raphson -- use scaled steepest descent instead.
     Accept linear search using points  1 and  2.
 Gradient too large for Newton-Raphson -- use scaled steepest descent instead.
 Gradient too large for Newton-Raphson -- use scaled steepest descent instead.
     Accept linear search using points  1 and  2.
 Gradient too large for Newton-Raphson -- use scaled steepest descent instead.
     Minimum is close to point  4 DX=  1.31D-02 DF= -1.14D-06 DXR=  8.63D-03 DFR=  9.18D-05 which will be used.
 Gradient too large for Newton-Raphson -- use scaled steepest descent instead.
 LinEq1:  Iter=  0 NonCon=     1 RMS=2.26D-03 Max=3.63D-02 NDo=     1
 AX will form     1 AO Fock derivatives at one time.
 LinEq1:  Iter=  1 NonCon=     1 RMS=3.44D-04 Max=2.28D-03 NDo=     1
 LinEq1:  Iter=  2 NonCon=     1 RMS=8.27D-05 Max=6.09D-04 NDo=     1
 LinEq1:  Iter=  3 NonCon=     1 RMS=2.06D-05 Max=3.17D-04 NDo=     1
 LinEq1:  Iter=  4 NonCon=     1 RMS=3.86D-06 Max=3.81D-05 NDo=     1
 LinEq1:  Iter=  5 NonCon=     1 RMS=8.33D-07 Max=7.99D-06 NDo=     1
 LinEq1:  Iter=  6 NonCon=     1 RMS=1.82D-07 Max=1.49D-06 NDo=     1
 LinEq1:  Iter=  7 NonCon=     1 RMS=2.70D-08 Max=3.05D-07 NDo=     1
 LinEq1:  Iter=  8 NonCon=     1 RMS=4.64D-09 Max=3.11D-08 NDo=     1
 LinEq1:  Iter=  9 NonCon=     0 RMS=5.40D-10 Max=3.77D-09 NDo=     1
 Linear equations converged to 1.640D-09 1.640D-08 after     9 iterations.
     Accept linear search using points  1 and  2.
     Minimum is close to point  2 DX= -8.87D-03 DF= -1.29D-08 DXR=  8.95D-03 DFR=  8.59D-05 which will be used.
 LinEq1:  Iter=  0 NonCon=     1 RMS=4.03D-04 Max=6.10D-03 NDo=     1
 LinEq1:  Iter=  1 NonCon=     1 RMS=1.10D-04 Max=7.79D-04 NDo=     1
 LinEq1:  Iter=  2 NonCon=     1 RMS=4.08D-05 Max=2.69D-04 NDo=     1
 LinEq1:  Iter=  3 NonCon=     1 RMS=3.47D-06 Max=2.62D-05 NDo=     1
 LinEq1:  Iter=  4 NonCon=     1 RMS=7.52D-07 Max=1.04D-05 NDo=     1
 LinEq1:  Iter=  5 NonCon=     1 RMS=2.70D-07 Max=2.30D-06 NDo=     1
 LinEq1:  Iter=  6 NonCon=     1 RMS=2.50D-08 Max=1.89D-07 NDo=     1
 LinEq1:  Iter=  7 NonCon=     1 RMS=4.88D-09 Max=4.15D-08 NDo=     1
 LinEq1:  Iter=  8 NonCon=     0 RMS=8.81D-10 Max=6.32D-09 NDo=     1
 Linear equations converged to 1.640D-09 1.640D-08 after     8 iterations.
     Minimum is close to point  2 DX=  2.26D-02 DF= -7.76D-09 DXR=  2.21D-02 DFR=  4.87D-04 which will be used.
 LinEq1:  Iter=  0 NonCon=     1 RMS=1.33D-05 Max=2.11D-04 NDo=     1
 LinEq1:  Iter=  1 NonCon=     1 RMS=3.59D-06 Max=2.37D-05 NDo=     1
 LinEq1:  Iter=  2 NonCon=     1 RMS=1.81D-06 Max=2.59D-05 NDo=     1
 LinEq1:  Iter=  3 NonCon=     1 RMS=7.10D-07 Max=6.42D-06 NDo=     1
 LinEq1:  Iter=  4 NonCon=     1 RMS=8.38D-08 Max=9.33D-07 NDo=     1
 LinEq1:  Iter=  5 NonCon=     1 RMS=1.61D-08 Max=1.32D-07 NDo=     1
 LinEq1:  Iter=  6 NonCon=     1 RMS=2.35D-09 Max=2.60D-08 NDo=     1
 LinEq1:  Iter=  7 NonCon=     0 RMS=3.43D-10 Max=1.89D-09 NDo=     1
 Linear equations converged to 7.955D-10 7.955D-09 after     7 iterations.
 Incorrect curvature in search direction -- initial direction reversed.
     Minimum is close to point  4 DX=  3.94D-01 DF= -5.95D-08 DXR=  9.86D-02 DFR=  2.87D-02 which will be used.
 LinEq1:  Iter=  0 NonCon=     1 RMS=6.72D-05 Max=9.08D-04 NDo=     1
 LinEq1:  Iter=  1 NonCon=     1 RMS=1.96D-05 Max=1.51D-04 NDo=     1
 LinEq1:  Iter=  2 NonCon=     1 RMS=1.19D-05 Max=1.17D-04 NDo=     1
 LinEq1:  Iter=  3 NonCon=     1 RMS=5.57D-06 Max=6.69D-05 NDo=     1
 LinEq1:  Iter=  4 NonCon=     1 RMS=8.95D-07 Max=5.99D-06 NDo=     1
 LinEq1:  Iter=  5 NonCon=     1 RMS=1.86D-07 Max=2.03D-06 NDo=     1
 LinEq1:  Iter=  6 NonCon=     1 RMS=2.76D-08 Max=2.39D-07 NDo=     1
 LinEq1:  Iter=  7 NonCon=     1 RMS=2.91D-09 Max=1.89D-08 NDo=     1
 LinEq1:  Iter=  8 NonCon=     0 RMS=4.11D-10 Max=2.28D-09 NDo=     1
 Linear equations converged to 1.640D-09 1.640D-08 after     8 iterations.
 Incorrect curvature in search direction -- initial direction reversed.
 LinEq1:  Iter=  0 NonCon=     1 RMS=8.98D-05 Max=8.06D-04 NDo=     1
 LinEq1:  Iter=  1 NonCon=     1 RMS=2.70D-05 Max=2.90D-04 NDo=     1
 LinEq1:  Iter=  2 NonCon=     1 RMS=1.63D-05 Max=1.63D-04 NDo=     1
 LinEq1:  Iter=  3 NonCon=     1 RMS=8.37D-06 Max=8.91D-05 NDo=     1
 LinEq1:  Iter=  4 NonCon=     1 RMS=1.46D-06 Max=9.33D-06 NDo=     1
 LinEq1:  Iter=  5 NonCon=     1 RMS=2.18D-07 Max=2.43D-06 NDo=     1
 LinEq1:  Iter=  6 NonCon=     1 RMS=4.19D-08 Max=3.09D-07 NDo=     1
 LinEq1:  Iter=  7 NonCon=     1 RMS=4.94D-09 Max=3.25D-08 NDo=     1
 LinEq1:  Iter=  8 NonCon=     0 RMS=8.47D-10 Max=6.30D-09 NDo=     1
 Linear equations converged to 1.640D-09 1.640D-08 after     8 iterations.
     Accept linear search using points  1 and  2.
 LinEq1:  Iter=  0 NonCon=     1 RMS=1.01D-04 Max=8.64D-04 NDo=     1
 LinEq1:  Iter=  1 NonCon=     1 RMS=1.91D-05 Max=2.81D-04 NDo=     1
 LinEq1:  Iter=  2 NonCon=     1 RMS=7.66D-06 Max=6.49D-05 NDo=     1
 LinEq1:  Iter=  3 NonCon=     1 RMS=4.13D-06 Max=4.57D-05 NDo=     1
 LinEq1:  Iter=  4 NonCon=     1 RMS=5.93D-07 Max=5.93D-06 NDo=     1
 LinEq1:  Iter=  5 NonCon=     1 RMS=8.05D-08 Max=7.35D-07 NDo=     1
 LinEq1:  Iter=  6 NonCon=     1 RMS=1.12D-08 Max=7.34D-08 NDo=     1
 LinEq1:  Iter=  7 NonCon=     1 RMS=2.18D-09 Max=1.31D-08 NDo=     1
 LinEq1:  Iter=  8 NonCon=     0 RMS=2.99D-10 Max=2.23D-09 NDo=     1
 Linear equations converged to 1.640D-09 1.640D-08 after     8 iterations.
     Minimum is close to point  3 DX=  1.36D-02 DF= -4.88D-09 DXR=  9.62D-03 DFR=  1.72D-04 which will be used.
 LinEq1:  Iter=  0 NonCon=     1 RMS=1.02D-04 Max=8.58D-04 NDo=     1
 LinEq1:  Iter=  1 NonCon=     1 RMS=2.00D-05 Max=3.01D-04 NDo=     1
 LinEq1:  Iter=  2 NonCon=     1 RMS=9.11D-06 Max=8.47D-05 NDo=     1
 LinEq1:  Iter=  3 NonCon=     1 RMS=5.25D-06 Max=4.74D-05 NDo=     1
 LinEq1:  Iter=  4 NonCon=     1 RMS=5.09D-07 Max=3.78D-06 NDo=     1
 LinEq1:  Iter=  5 NonCon=     1 RMS=6.54D-08 Max=5.34D-07 NDo=     1
 LinEq1:  Iter=  6 NonCon=     1 RMS=1.32D-08 Max=1.29D-07 NDo=     1
 LinEq1:  Iter=  7 NonCon=     1 RMS=3.21D-09 Max=2.54D-08 NDo=     1
 LinEq1:  Iter=  8 NonCon=     0 RMS=4.92D-10 Max=3.23D-09 NDo=     1
 Linear equations converged to 1.640D-09 1.640D-08 after     8 iterations.
     Minimum is close to point  3 DX=  1.36D-01 DF= -3.21D-07 DXR=  8.31D-02 DFR=  1.07D-02 which will be used.
 LinEq1:  Iter=  0 NonCon=     1 RMS=7.99D-05 Max=6.82D-04 NDo=     1
 LinEq1:  Iter=  1 NonCon=     1 RMS=1.77D-05 Max=2.59D-04 NDo=     1
 LinEq1:  Iter=  2 NonCon=     1 RMS=9.16D-06 Max=8.23D-05 NDo=     1
 LinEq1:  Iter=  3 NonCon=     1 RMS=6.20D-06 Max=7.19D-05 NDo=     1
 LinEq1:  Iter=  4 NonCon=     1 RMS=7.56D-07 Max=6.58D-06 NDo=     1
 LinEq1:  Iter=  5 NonCon=     1 RMS=7.22D-08 Max=5.38D-07 NDo=     1
 LinEq1:  Iter=  6 NonCon=     1 RMS=1.43D-08 Max=1.59D-07 NDo=     1
 LinEq1:  Iter=  7 NonCon=     1 RMS=2.97D-09 Max=2.14D-08 NDo=     1
 LinEq1:  Iter=  8 NonCon=     0 RMS=3.27D-10 Max=2.53D-09 NDo=     1
 Linear equations converged to 1.640D-09 1.640D-08 after     8 iterations.
     Minimum is close to point  3 DX= -7.27D-03 DF= -7.90D-10 DXR=  4.87D-03 DFR=  3.86D-05 which will be used.
 LinEq1:  Iter=  0 NonCon=     1 RMS=7.50D-05 Max=6.50D-04 NDo=     1
 LinEq1:  Iter=  1 NonCon=     1 RMS=1.37D-05 Max=1.83D-04 NDo=     1
 LinEq1:  Iter=  2 NonCon=     1 RMS=1.08D-05 Max=7.81D-05 NDo=     1
 LinEq1:  Iter=  3 NonCon=     1 RMS=6.54D-06 Max=7.40D-05 NDo=     1
 LinEq1:  Iter=  4 NonCon=     1 RMS=7.77D-07 Max=6.08D-06 NDo=     1
 LinEq1:  Iter=  5 NonCon=     1 RMS=6.26D-08 Max=5.08D-07 NDo=     1
 LinEq1:  Iter=  6 NonCon=     1 RMS=7.61D-09 Max=5.96D-08 NDo=     1
 LinEq1:  Iter=  7 NonCon=     1 RMS=1.91D-09 Max=1.93D-08 NDo=     1
 LinEq1:  Iter=  8 NonCon=     0 RMS=3.31D-10 Max=3.37D-09 NDo=     1
 Linear equations converged to 1.640D-09 1.640D-08 after     8 iterations.
     Accept linear search using points  3 and  4.
     Minimum is close to point  4 DX= -1.73D-01 DF= -1.06D-07 DXR=  7.11D-02 DFR=  6.99D-03 which will be used.
 LinEq1:  Iter=  0 NonCon=     1 RMS=5.20D-05 Max=3.72D-04 NDo=     1
 LinEq1:  Iter=  1 NonCon=     1 RMS=6.17D-06 Max=5.03D-05 NDo=     1
 LinEq1:  Iter=  2 NonCon=     1 RMS=6.30D-06 Max=6.15D-05 NDo=     1
 LinEq1:  Iter=  3 NonCon=     1 RMS=3.98D-06 Max=4.45D-05 NDo=     1
 LinEq1:  Iter=  4 NonCon=     1 RMS=5.45D-07 Max=3.66D-06 NDo=     1
 LinEq1:  Iter=  5 NonCon=     1 RMS=5.71D-08 Max=5.80D-07 NDo=     1
 LinEq1:  Iter=  6 NonCon=     1 RMS=1.44D-08 Max=1.22D-07 NDo=     1
 LinEq1:  Iter=  7 NonCon=     0 RMS=1.59D-09 Max=1.06D-08 NDo=     1
 Linear equations converged to 1.640D-09 1.640D-08 after     7 iterations.
     Accept linear search using points  2 and  3.
 LinEq1:  Iter=  0 NonCon=     1 RMS=1.40D-05 Max=1.15D-04 NDo=     1
 LinEq1:  Iter=  1 NonCon=     1 RMS=2.24D-06 Max=2.90D-05 NDo=     1
 LinEq1:  Iter=  2 NonCon=     1 RMS=9.18D-07 Max=6.37D-06 NDo=     1
 LinEq1:  Iter=  3 NonCon=     1 RMS=8.76D-07 Max=1.09D-05 NDo=     1
 LinEq1:  Iter=  4 NonCon=     1 RMS=1.40D-07 Max=1.08D-06 NDo=     1
 LinEq1:  Iter=  5 NonCon=     1 RMS=9.62D-09 Max=9.17D-08 NDo=     1
 LinEq1:  Iter=  6 NonCon=     1 RMS=1.74D-09 Max=1.80D-08 NDo=     1
 LinEq1:  Iter=  7 NonCon=     0 RMS=2.07D-10 Max=1.25D-09 NDo=     1
 Linear equations converged to 1.640D-09 1.640D-08 after     7 iterations.
     Accept linear search using points  1 and  2.
 LinEq1:  Iter=  0 NonCon=     1 RMS=7.73D-06 Max=4.96D-05 NDo=     1
 LinEq1:  Iter=  1 NonCon=     1 RMS=8.60D-07 Max=7.40D-06 NDo=     1
 LinEq1:  Iter=  2 NonCon=     1 RMS=8.63D-07 Max=9.30D-06 NDo=     1
 LinEq1:  Iter=  3 NonCon=     1 RMS=3.98D-07 Max=4.02D-06 NDo=     1
 LinEq1:  Iter=  4 NonCon=     1 RMS=7.06D-08 Max=5.66D-07 NDo=     1
 LinEq1:  Iter=  5 NonCon=     1 RMS=1.55D-08 Max=1.72D-07 NDo=     1
 LinEq1:  Iter=  6 NonCon=     1 RMS=2.61D-09 Max=1.70D-08 NDo=     1
 LinEq1:  Iter=  7 NonCon=     0 RMS=3.78D-10 Max=2.11D-09 NDo=     1
 Linear equations converged to 1.640D-09 1.640D-08 after     7 iterations.
 LinEq1:  Iter=  0 NonCon=     1 RMS=1.00D-06 Max=8.03D-06 NDo=     1
 LinEq1:  Iter=  1 NonCon=     1 RMS=1.57D-07 Max=1.03D-06 NDo=     1
 LinEq1:  Iter=  2 NonCon=     1 RMS=4.45D-08 Max=4.43D-07 NDo=     1
 LinEq1:  Iter=  3 NonCon=     1 RMS=3.05D-08 Max=2.25D-07 NDo=     1
 LinEq1:  Iter=  4 NonCon=     1 RMS=2.56D-08 Max=3.00D-07 NDo=     1
 LinEq1:  Iter=  5 NonCon=     1 RMS=4.56D-09 Max=3.97D-08 NDo=     1
 LinEq1:  Iter=  6 NonCon=     1 RMS=1.16D-09 Max=9.01D-09 NDo=     1
 LinEq1:  Iter=  7 NonCon=     0 RMS=1.67D-10 Max=1.17D-09 NDo=     1
 Linear equations converged to 4.334D-10 4.334D-09 after     7 iterations.
 LinEq1:  Iter=  0 NonCon=     1 RMS=2.65D-07 Max=1.77D-06 NDo=     1
 LinEq1:  Iter=  1 NonCon=     1 RMS=8.97D-08 Max=9.35D-07 NDo=     1
 LinEq1:  Iter=  2 NonCon=     1 RMS=3.57D-08 Max=3.09D-07 NDo=     1
 LinEq1:  Iter=  3 NonCon=     1 RMS=1.55D-08 Max=1.69D-07 NDo=     1
 LinEq1:  Iter=  4 NonCon=     1 RMS=6.85D-09 Max=5.91D-08 NDo=     1
 LinEq1:  Iter=  5 NonCon=     1 RMS=1.21D-09 Max=7.94D-09 NDo=     1
 LinEq1:  Iter=  6 NonCon=     1 RMS=2.01D-10 Max=9.18D-10 NDo=     1
 LinEq1:  Iter=  7 NonCon=     0 RMS=3.44D-11 Max=2.42D-10 NDo=     1
 Linear equations converged to 1.212D-10 1.212D-09 after     7 iterations.
 LinEq1:  Iter=  0 NonCon=     1 RMS=2.50D-08 Max=1.76D-07 NDo=     1
 LinEq1:  Iter=  1 NonCon=     1 RMS=1.50D-08 Max=1.88D-07 NDo=     1
 LinEq1:  Iter=  2 NonCon=     1 RMS=6.68D-09 Max=8.42D-08 NDo=     1
 LinEq1:  Iter=  3 NonCon=     1 RMS=3.56D-09 Max=3.26D-08 NDo=     1
 LinEq1:  Iter=  4 NonCon=     1 RMS=9.63D-10 Max=6.21D-09 NDo=     1
 LinEq1:  Iter=  5 NonCon=     1 RMS=1.47D-10 Max=1.31D-09 NDo=     1
 LinEq1:  Iter=  6 NonCon=     1 RMS=3.25D-11 Max=2.41D-10 NDo=     1
 LinEq1:  Iter=  7 NonCon=     0 RMS=6.16D-12 Max=4.47D-11 NDo=     1
 Linear equations converged to 9.474D-12 9.474D-11 after     7 iterations.
 LinEq1:  Iter=  0 NonCon=     1 RMS=1.19D-08 Max=8.64D-08 NDo=     1
 LinEq1:  Iter=  1 NonCon=     1 RMS=2.68D-09 Max=2.22D-08 NDo=     1
 LinEq1:  Iter=  2 NonCon=     1 RMS=1.95D-09 Max=2.38D-08 NDo=     1
 LinEq1:  Iter=  3 NonCon=     1 RMS=1.28D-09 Max=8.94D-09 NDo=     1
 LinEq1:  Iter=  4 NonCon=     1 RMS=3.61D-10 Max=2.89D-09 NDo=     1
 LinEq1:  Iter=  5 NonCon=     1 RMS=7.19D-11 Max=4.39D-10 NDo=     1
 LinEq1:  Iter=  6 NonCon=     1 RMS=1.17D-11 Max=8.16D-11 NDo=     1
 LinEq1:  Iter=  7 NonCon=     0 RMS=1.92D-12 Max=1.59D-11 NDo=     1
 Linear equations converged to 4.656D-12 4.656D-11 after     7 iterations.
 SCF Done:  E(UB3LYP) =  -100.761705440     a.u. after   30 cycles
            Convg  =    0.6337D-07                   203 Fock formations.
              S**2 =  1.6942                  -V/T =  2.0016
 <Sx>= 0.0000 <Sy>= 0.0000 <Sz>= 0.5000 <S**2>= 1.6942 S= 0.8944
 <L.S>=  0.00000000000    
 Annihilation of the first spin contaminant:
 S**2 before annihilation     1.6942,   after     0.7528
 DoSCS=F DFT=T ScalE2(SS,OS)=  1.000000  1.000000
 Range of M.O.s used for correlation:     1    30
 NBasis=    30 NAE=     6 NBE=     5 NFC=     0 NFV=     0
 NROrb=     30 NOA=     6 NOB=     5 NVA=    24 NVB=    25

 **** Warning!!: The smallest beta delta epsilon is  0.70569148D-01

 Symmetrizing basis deriv contribution to polar:
 IMax=3 JMax=2 DiffMx= 0.00D+00
 G2DrvN: will do     4 centers at a time, making    1 passes.
 Calling FoFCou, ICntrl=  3107 FMM=F I1Cent=   0 AccDes= 0.00D+00.
 End of G2Drv F.D. properties file   721 does not exist.
 End of G2Drv F.D. properties file   722 does not exist.
 End of G2Drv F.D. properties file   788 does not exist.
          IDoAtm=111
          Differentiating once with respect to electric field.
                with respect to dipole field.
          Differentiating once with respect to nuclear coordinates.
 Keep R1 and R2 ints in memory in canonical form, NReq=7101526.
          There are    12 degrees of freedom in the 1st order CPHF.  IDoFFX=6 NUNeed=     3.
      9 vectors produced by pass  0 Test12= 2.24D-15 8.33D-09 XBig12= 7.35D+01 7.67D+00.
 AX will form     9 AO Fock derivatives at one time.
      9 vectors produced by pass  1 Test12= 2.24D-15 8.33D-09 XBig12= 2.82D-01 2.10D-01.
      9 vectors produced by pass  2 Test12= 2.24D-15 8.33D-09 XBig12= 5.24D-02 1.10D-01.
      7 vectors produced by pass  3 Test12= 2.24D-15 8.33D-09 XBig12= 6.62D-05 2.91D-03.
      7 vectors produced by pass  4 Test12= 2.24D-15 8.33D-09 XBig12= 7.23D-07 3.16D-04.
      4 vectors produced by pass  5 Test12= 2.24D-15 8.33D-09 XBig12= 2.69D-09 1.89D-05.
      1 vectors produced by pass  6 Test12= 2.24D-15 8.33D-09 XBig12= 1.21D-11 1.91D-06.
      1 vectors produced by pass  7 Test12= 2.24D-15 8.33D-09 XBig12= 8.82D-15 4.26D-08.
 InvSVY:  IOpt=1 It=  1 EMax= 3.44D-15
 Solved reduced A of dimension    47 with     9 vectors.
 Isotropic polarizability for W=    0.000000        9.23 Bohr**3.
 End of Minotr F.D. properties file   721 does not exist.
 End of Minotr F.D. properties file   722 does not exist.
 End of Minotr F.D. properties file   788 does not exist.

 **********************************************************************

            Population analysis using the SCF Density.

 **********************************************************************

 Alpha  occ. eigenvalues --  -24.75746  -1.21683  -0.54870  -0.46071  -0.46071
 Alpha  occ. eigenvalues --   -0.32523
 Alpha virt. eigenvalues --   -0.08969   0.25643   0.34965   0.86944   0.91252
 Alpha virt. eigenvalues --    0.91252   1.01303   1.25091   1.25091   1.26605
 Alpha virt. eigenvalues --    1.42272   1.42272   1.43300   2.16014   2.37496
 Alpha virt. eigenvalues --    3.65367   3.67576   3.67576   3.74580   3.74580
 Alpha virt. eigenvalues --    5.86408   5.93984   5.93984  66.47186
  Beta  occ. eigenvalues --  -24.72610  -1.12668  -0.42927  -0.42927  -0.32733
  Beta virt. eigenvalues --   -0.25676  -0.08661   0.25455   0.35407   0.92748
  Beta virt. eigenvalues --    0.92748   0.96243   1.05401   1.24853   1.24853
  Beta virt. eigenvalues --    1.26331   1.42733   1.42733   1.43759   2.16227
  Beta virt. eigenvalues --    2.37592   3.76201   3.76201   3.77334   3.77334
  Beta virt. eigenvalues --    3.79354   5.96641   5.96641   6.00485  66.50308
          Condensed to atoms (all electrons):
               1          2          3
     1  H    0.979582   0.015652   0.000775
     2  H    0.015652   0.983255  -0.000000
     3  F    0.000775  -0.000000   9.004310
          Atomic-Atomic Spin Densities.
               1          2          3
     1  H   -0.971880   0.000619  -0.000303
     2  H    0.000619   0.976677  -0.000000
     3  F   -0.000303  -0.000000   0.994570
 Mulliken charges and spin densities:
               1          2
     1  H    0.003992  -0.971563
     2  H    0.001094   0.977296
     3  F   -0.005085   0.994267
 Sum of Mulliken charges =   0.00000   1.00000
 Mulliken charges and spin densities with hydrogens summed into heavy atoms:
               1          2
     3  F    0.000000   1.000000
 APT charges:
               1
     1  H   -0.018307
     2  H    0.000208
     3  F    0.018098
 Sum of APT charges =   0.00000
 APT charges with hydrogens summed into heavy atoms:
               1
     3  F    0.000000
 Electronic spatial extent (au):  <R**2>=            492.6115
 Charge=              0.0000 electrons
 Dipole moment (field-independent basis, Debye):
    X=             -0.1116    Y=              0.0000    Z=             -0.0000  Tot=              0.1116
 Quadrupole moment (field-independent basis, Debye-Ang):
   XX=             -6.8871   YY=             -7.6585   ZZ=             -7.6585
   XY=              0.0000   XZ=             -0.0000   YZ=             -0.0000
 Traceless Quadrupole moment (field-independent basis, Debye-Ang):
   XX=              0.5143   YY=             -0.2571   ZZ=             -0.2571
   XY=              0.0000   XZ=             -0.0000   YZ=             -0.0000
 Octapole moment (field-independent basis, Debye-Ang**2):
  XXX=            -36.0125  YYY=             -0.0000  ZZZ=              0.0000  XYY=            -14.4916
  XXY=              0.0000  XXZ=             -0.0000  XZZ=            -14.4916  YZZ=             -0.0000
  YYZ=              0.0000  XYZ=             -0.0000
 Hexadecapole moment (field-independent basis, Debye-Ang**3):
 XXXX=           -399.6002 YYYY=             -6.4337 ZZZZ=             -6.4337 XXXY=              0.0000
 XXXZ=             -0.0000 YYYX=              0.0000 YYYZ=             -0.0000 ZZZX=             -0.0000
 ZZZY=             -0.0000 XXYY=            -79.5025 XXZZ=            -79.5025 YYZZ=             -2.1446
 XXYZ=             -0.0000 YYXZ=             -0.0000 ZZXY=              0.0000
 N-N= 2.223569947327D+00 E-N=-2.453778397056D+02  KE= 1.006006630744D+02
  Exact polarizability:      23.648      -0.000       2.021       0.000      -0.000       2.021
 Approx polarizability:      17.482       0.000       1.931      -0.000       0.000       1.931
                          Isotropic Fermi Contact Couplings
        Atom                 a.u.       MegaHertz       Gauss      10(-4) cm-1
     1  H(1)              -0.28932   -1293.23396    -461.45804    -431.37642
     2  H(1)               0.29064    1299.13405     463.56334     433.34448
     3  F(19)              0.03045     128.11009      45.71287      42.73293
 --------------------------------------------------------
       Center         ----  Spin Dipole Couplings  ----
                      3XX-RR        3YY-RR        3ZZ-RR
 --------------------------------------------------------
     1   Atom        0.022273     -0.011137     -0.011137
     2   Atom       -0.014915      0.007457      0.007457
     3   Atom        6.255921     -3.127960     -3.127960
 --------------------------------------------------------
                        XY            XZ            YZ
 --------------------------------------------------------
     1   Atom       -0.000000      0.000000     -0.000000
     2   Atom       -0.000000      0.000000     -0.000000
     3   Atom        0.000010     -0.000005      0.000000
 --------------------------------------------------------


 ---------------------------------------------------------------------------------
              Anisotropic Spin Dipole Couplings in Principal Axis System
 ---------------------------------------------------------------------------------

       Atom             a.u.   MegaHertz   Gauss  10(-4) cm-1        Axes

              Baa    -0.0111    -5.942    -2.120    -1.982  0.0000  0.4921  0.8705
     1 H(1)   Bbb    -0.0111    -5.942    -2.120    -1.982  0.0000  0.8705 -0.4921
              Bcc     0.0223    11.884     4.240     3.964  1.0000 -0.0000  0.0000
 
              Baa    -0.0149    -7.958    -2.840    -2.654  1.0000  0.0000 -0.0000
     2 H(1)   Bbb     0.0075     3.979     1.420     1.327  0.0000  0.4936  0.8697
              Bcc     0.0075     3.979     1.420     1.327 -0.0000  0.8697 -0.4936
 
              Baa    -3.1280 -1570.942  -560.551  -524.010 -0.0000  0.8925 -0.4510
     3 F(19)  Bbb    -3.1280 -1570.942  -560.551  -524.010  0.0000  0.4510  0.8925
              Bcc     6.2559  3141.884  1121.102  1048.020  1.0000  0.0000 -0.0000
 

 ---------------------------------------------------------------------------------

 Calling FoFJK, ICntrl=    100127 FMM=F ISym2X=0 I1Cent= 0 IOpClX= 1 NMat=1 NMatS=1 NMatT=0.
 Full mass-weighted force constant matrix:
 Low frequencies --- -576.4456 -101.7433   -0.0024   -0.0018   -0.0018   29.3069
 Low frequencies ---   29.3069  217.1500  217.1500
 ******    2 imaginary frequencies (negative Signs) ****** 
 Diagonal vibrational polarizability:
        5.7698895       0.0072378       0.0072378
 Harmonic frequencies (cm**-1), IR intensities (KM/Mole), Raman scattering
 activities (A**4/AMU), depolarization ratios for plane and unpolarized
 incident light, reduced masses (AMU), force constants (mDyne/A),
 and normal coordinates:
                      1                      2                      3
                      A                      A                      A
 Frequencies --   -576.4456              -101.7433               210.6914
 Red. masses --      1.0079                 1.1084                 1.0141
 Frc consts  --      0.1973                 0.0068                 0.0265
 IR Inten    --      2.0401                 2.1559                 0.0119
  Atom  AN      X      Y      Z        X      Y      Z        X      Y      Z
     1   1     0.73  -0.00   0.00     0.68  -0.00   0.00    -0.00  -0.60   0.62
     2   1    -0.68   0.00  -0.00     0.73   0.00  -0.00    -0.00   0.35  -0.37
     3   9    -0.00   0.00  -0.00    -0.07   0.00  -0.00     0.00   0.01  -0.01
                      4
                      A
 Frequencies --    210.6914
 Red. masses --      1.0141
 Frc consts  --      0.0265
 IR Inten    --      0.0119
  Atom  AN      X      Y      Z
     1   1     0.00   0.62   0.60
     2   1     0.00  -0.37  -0.35
     3   9    -0.00  -0.01  -0.01

 -------------------
 - Thermochemistry -
 -------------------
 Temperature   298.150 Kelvin.  Pressure   1.00000 Atm.
 Atom     1 has atomic number  1 and mass   1.00783
 Atom     2 has atomic number  1 and mass   1.00783
 Atom     3 has atomic number  9 and mass  18.99840
 Molecular mass:    21.01405 amu.
 Principal axes and moments of inertia in atomic units:
                           1         2         3
     Eigenvalues --     0.00000 178.12445 178.12445
           X            1.00000  -0.00000   0.00000
           Y            0.00000   1.00000   0.00000
           Z            0.00000   0.00000   1.00000
 This molecule is a prolate symmetric top.
 Rotational symmetry number  1.
 Rotational temperature (Kelvin)      0.48626
 Rotational constant (GHZ):          10.131912
    2 imaginary frequencies ignored.
 Zero-point vibrational energy       2520.4 (Joules/Mol)
                                    0.60240 (Kcal/Mol)
 Warning -- explicit consideration of   2 degrees of freedom as
           vibrations may cause significant error
 Vibrational temperatures:    303.14   303.14
          (Kelvin)
 
 Zero-point correction=                           0.000960 (Hartree/Particle)
 Thermal correction to Energy=                    0.004409
 Thermal correction to Enthalpy=                  0.005353
 Thermal correction to Gibbs Free Energy=        -0.020904
 Sum of electronic and zero-point Energies=           -100.760745
 Sum of electronic and thermal Energies=              -100.757297
 Sum of electronic and thermal Enthalpies=            -100.756352
 Sum of electronic and thermal Free Energies=         -100.782610
 
                     E (Thermal)             CV                S
                      KCal/Mol        Cal/Mol-Kelvin    Cal/Mol-Kelvin
 Total                    2.767              8.617             55.263
 Electronic               0.000              0.000              1.377
 Translational            0.889              2.981             35.068
 Rotational               0.592              1.987             14.742
 Vibrational              1.285              3.649              4.075
 Vibration     1          0.643              1.825              2.038
 Vibration     2          0.643              1.825              2.038
                       Q            Log10(Q)             Ln(Q)
 Total Bot       0.412395D+10          9.615313         22.140077
 Total V=0       0.113992D+11         10.056873         23.156807
 Vib (Bot)       0.888166D+00         -0.051506         -0.118597
 Vib (Bot)    1  0.942426D+00         -0.025753         -0.059298
 Vib (Bot)    2  0.942426D+00         -0.025753         -0.059298
 Vib (V=0)       0.245501D+01          0.390054          0.898133
 Vib (V=0)    1  0.156685D+01          0.195027          0.449066
 Vib (V=0)    2  0.156685D+01          0.195027          0.449066
 Electronic      0.200000D+01          0.301030          0.693147
 Translational   0.378633D+07          6.578219         15.146908
 Rotational      0.613156D+03          2.787571          6.418619
 -------------------------------------------------------------------
 Center     Atomic                   Forces (Hartrees/Bohr)
 Number     Number              X              Y              Z
 -------------------------------------------------------------------
      1        1          -0.003881630   -0.000000000    0.000000000
      2        1           0.004344798   -0.000000000    0.000000000
      3        9          -0.000463168    0.000000000   -0.000000000
 -------------------------------------------------------------------
 Cartesian Forces:  Max     0.004344798 RMS     0.001948185

 GradGradGradGradGradGradGradGradGradGradGradGradGradGradGradGradGradGrad
 Berny optimization.
 Search for a local minimum.
 Step number   1 out of a maximum of    2
 All quantities printed in internal units (Hartrees-Bohrs-Radians)
 Second derivative matrix not updated -- analytic derivatives used.
 The second derivative matrix:
                          X1        Y1        Z1        X2        Y2
           X1          -0.00691
           Y1           0.00000   0.00094
           Z1          -0.00000   0.00000   0.00094
           X2           0.00614  -0.00000  -0.00000  -0.00612
           Y2           0.00000  -0.00088   0.00000  -0.00000   0.00088
           Z2          -0.00000   0.00000  -0.00088  -0.00000   0.00000
           X3           0.00077  -0.00000   0.00000  -0.00003  -0.00000
           Y3          -0.00000  -0.00006  -0.00000   0.00000  -0.00000
           Z3           0.00000  -0.00000  -0.00006   0.00000  -0.00000
                          Z2        X3        Y3        Z3
           Z2           0.00088
           X3           0.00000  -0.00074
           Y3          -0.00000   0.00000   0.00006
           Z3          -0.00000  -0.00000   0.00000   0.00006
 ITU=  0
     Eigenvalues ---   -0.01269  -0.00081   0.00169   0.00169
 Eigenvalue     1 is  -1.27D-02 should be greater than     0.000000 Eigenvector:
                          X1        X2        X3        Y1        Y2
   1                    0.73849  -0.67392  -0.02153  -0.00000   0.00000
                          Z1        Z2        Y3        Z3
   1                    0.00000  -0.00000   0.00000  -0.00000
 Eigenvalue     2 is  -8.10D-04 should be greater than     0.000000 Eigenvector:
                          X2        X1        X3        Y1        Y2
   1                    0.67448   0.60309  -0.42586  -0.00000   0.00000
                          Z1        Z2        Y3        Z3
   1                    0.00000  -0.00000   0.00000  -0.00000
 Quadratic step=1.073D+00 exceeds max=3.000D-01 adjusted using Lamda=-7.567D-03.
 Angle between NR and scaled steps=  46.65 degrees.
 Angle between quadratic step and forces=  10.81 degrees.
 Linear search not attempted -- first point.
 B after Tr=    -0.022566    0.000000    0.000000
         Rot=    0.934438   -0.356126   -0.000000   -0.000000 Ang= -41.72 deg.
 Variable       Old X    -DE/DX   Delta X   Delta X   Delta X     New X
                                 (Linear)    (Quad)   (Total)
    X1        0.00000  -0.00388   0.00000  -0.15425  -0.17682  -0.17682
    Y1        0.00000  -0.00000   0.00000  -0.00000  -0.00000  -0.00000
    Z1        0.00000   0.00000   0.00000   0.00000  -0.00000  -0.00000
    X2       -4.91329   0.00434   0.00000   0.25580   0.23323  -4.68006
    Y2        0.00000  -0.00000   0.00000   0.00000   0.00000   0.00000
    Z2        0.00000   0.00000   0.00000  -0.00000   0.00000   0.00000
    X3        7.08647  -0.00046   0.00000  -0.03385  -0.05641   7.03006
    Y3        0.00000   0.00000   0.00000   0.00000   0.00000   0.00000
    Z3        0.00000  -0.00000   0.00000  -0.00000   0.00000   0.00000
         Item               Value     Threshold  Converged?
 Maximum Force            0.004345     0.000450     NO 
 RMS     Force            0.001948     0.000300     NO 
 Maximum Displacement     0.233232     0.001800     NO 
 RMS     Displacement     0.099356     0.001200     NO 
 Predicted change in Energy=-2.246812D-03
 GradGradGradGradGradGradGradGradGradGradGradGradGradGradGradGradGradGrad


 ----------------------------------------------------------------------

 Electric dipole moment (input orientation):
 (Debye = 10**-18 statcoulomb cm , SI units = C m)
                  (au)            (Debye)         (10**-30 SI)
   Tot        0.439195D-01      0.111632D+00      0.372365D+00
   x         -0.439195D-01     -0.111632D+00     -0.372365D+00
   y          0.000000D+00      0.000000D+00      0.000000D+00
   z          0.000000D+00      0.000000D+00      0.000000D+00

 Dipole polarizability, Alpha (input orientation).
 (esu units = cm**3 , SI units = C**2 m**2 J**-1)
 Alpha(0;0):
               (au)            (10**-24 esu)      (10**-40 SI)
   iso        0.923016D+01      0.136777D+01      0.152185D+01
   aniso      0.216274D+02      0.320485D+01      0.356588D+01
   xx         0.236484D+02      0.350434D+01      0.389910D+01
   yx         0.000000D+00      0.000000D+00      0.000000D+00
   yy         0.202103D+01      0.299485D+00      0.333222D+00
   zx         0.000000D+00      0.000000D+00      0.000000D+00
   zy         0.000000D+00      0.000000D+00      0.000000D+00
   zz         0.202103D+01      0.299485D+00      0.333222D+00

 ----------------------------------------------------------------------

 Dipole orientation:
     1          0.00000000          0.00000000          0.00000000
     1          0.00000023         -0.00000074          4.91328792
     9         -0.00000033          0.00000107         -7.08647297

 Electric dipole moment (dipole orientation):
 (Debye = 10**-18 statcoulomb cm , SI units = C m)
                  (au)            (Debye)         (10**-30 SI)
   Tot        0.439195D-01      0.111632D+00      0.372365D+00
   x          0.000000D+00      0.000000D+00      0.000000D+00
   y          0.000000D+00      0.000000D+00      0.000000D+00
   z          0.439195D-01      0.111632D+00      0.372365D+00

 Dipole polarizability, Alpha (dipole orientation).
 (esu units = cm**3 , SI units = C**2 m**2 J**-1)
 Alpha(0;0):
               (au)            (10**-24 esu)      (10**-40 SI)
   iso        0.923016D+01      0.136777D+01      0.152185D+01
   aniso      0.216274D+02      0.320485D+01      0.356588D+01
   xx         0.202103D+01      0.299485D+00      0.333222D+00
   yx         0.000000D+00      0.000000D+00      0.000000D+00
   yy         0.202103D+01      0.299485D+00      0.333222D+00
   zx         0.000000D+00      0.000000D+00      0.000000D+00
   zy         0.000000D+00      0.000000D+00      0.000000D+00
   zz         0.236484D+02      0.350434D+01      0.389910D+01

 ----------------------------------------------------------------------
 Unable to Open any file for archive entry.
 1\1\GINC-DESKTOP-B3RIHJD\Freq\UB3LYP\6-311G(d,p)\F1H2(2)\GARYX\23-Aug-
 2025\0\\# sp b3lyp/6-311g** Force nosymm scf=(qc)\\Title Card Required
 \\0,2\H,0.,0.,0.\H,-2.6,0.,0.\F,3.75,0.,0.\\Version=ES64L-G16RevC.01\H
 F=-100.7617054\S2=1.694237\S2-1=0.\S2A=0.752834\RMSD=3.864e-09\RMSF=1.
 948e-03\Thermal=0.0044088\ETot=-100.7572967\HTot=-100.7563525\GTot=-10
 0.7826098\Dipole=-0.0439195,0.,0.\DipoleDeriv=-0.0640917,0.,0.,0.,0.00
 45858,0.,0.,0.,0.0045858,-0.0014559,0.,0.,0.,0.0010407,0.,0.,0.,0.0010
 407,0.0655477,0.,0.,0.,-0.0056265,0.,0.,0.,-0.0056265\Polar=23.6484369
 ,0.,2.0210258,0.,0.,2.0210258\Quadrupole=0.3823483,-0.1911741,-0.19117
 41,0.0000007,-0.0000004,0.\PG=C*V [C*(H1H1F1)]\NImag=2\\-0.00691176,0.
 ,0.00094353,0.,0.,0.00094353,0.00614468,0.,0.,-0.00611721,0.,-0.000883
 89,0.,0.,0.00088448,0.,0.,-0.00088389,0.,0.,0.00088448,0.00076708,0.,0
 .,-0.00002747,0.,0.,-0.00073962,0.,-0.00005964,0.,0.,-0.00000058,0.,0.
 ,0.00006022,0.,0.,-0.00005964,0.,0.,-0.00000058,0.,0.,0.00006022\\0.00
 388163,0.,0.,-0.00434480,0.,0.,0.00046317,0.,0.\\\@
 The archive entry for this job was punched.


 DEPRESSION IS WAITING FOR YOUR SHIP TO COME IN,
 AND FINDING OUT IT'S THE TITANIC.
 Job cpu time:       0 days  0 hours  0 minutes 33.8 seconds.
 Elapsed time:       0 days  0 hours  0 minutes  4.6 seconds.
 File lengths (MBytes):  RWF=      6 Int=      0 D2E=      0 Chk=      1 Scr=      1
 Normal termination of Gaussian 16 at Sat Aug 23 00:26:17 2025.
