 Entering Gaussian System, Link 0=g16
 Initial command:
 /home/garyx/gaussian/g16/l1.exe "/tmp/gaussian_scratch/Gau-488670.inp" -scrdir="/tmp/gaussian_scratch/"
 Entering Link 1 = /home/garyx/gaussian/g16/l1.exe PID=    488672.
  
 Copyright (c) 1988-2019, Gaussian, Inc.  All Rights Reserved.
  
 This is part of the Gaussian(R) 16 program.  It is based on
 the Gaussian(R) 09 system (copyright 2009, Gaussian, Inc.),
 the Gaussian(R) 03 system (copyright 2003, Gaussian, Inc.),
 the Gaussian(R) 98 system (copyright 1998, Gaussian, Inc.),
 the Gaussian(R) 94 system (copyright 1995, Gaussian, Inc.),
 the Gaussian 92(TM) system (copyright 1992, Gaussian, Inc.),
 the Gaussian 90(TM) system (copyright 1990, Gaussian, Inc.),
 the Gaussian 88(TM) system (copyright 1988, Gaussian, Inc.),
 the Gaussian 86(TM) system (copyright 1986, Carnegie Mellon
 University), and the Gaussian 82(TM) system (copyright 1983,
 Carnegie Mellon University). Gaussian is a federally registered
 trademark of Gaussian, Inc.
  
 This software contains proprietary and confidential information,
 including trade secrets, belonging to Gaussian, Inc.
  
 This software is provided under written license and may be
 used, copied, transmitted, or stored only in accord with that
 written license.
  
 The following legend is applicable only to US Government
 contracts under FAR:
  
                    RESTRICTED RIGHTS LEGEND
  
 Use, reproduction and disclosure by the US Government is
 subject to restrictions as set forth in subparagraphs (a)
 and (c) of the Commercial Computer Software - Restricted
 Rights clause in FAR 52.227-19.
  
 Gaussian, Inc.
 340 Quinnipiac St., Bldg. 40, Wallingford CT 06492
  
  
 ---------------------------------------------------------------
 Warning -- This program may not be used in any manner that
 competes with the business of Gaussian, Inc. or will provide
 assistance to any competitor of Gaussian, Inc.  The licensee
 of this program is prohibited from giving any competitor of
 Gaussian, Inc. access to this program.  By using this program,
 the user acknowledges that Gaussian, Inc. is engaged in the
 business of creating and licensing software in the field of
 computational chemistry and represents and warrants to the
 licensee that it is not a competitor of Gaussian, Inc. and that
 it will not use this program in any manner prohibited above.
 ---------------------------------------------------------------
  

 Cite this work as:
 Gaussian 16, Revision C.01,
 M. J. Frisch, G. W. Trucks, H. B. Schlegel, G. E. Scuseria, 
 M. A. Robb, J. R. Cheeseman, G. Scalmani, V. Barone, 
 G. A. Petersson, H. Nakatsuji, X. Li, M. Caricato, A. V. Marenich, 
 J. Bloino, B. G. Janesko, R. Gomperts, B. Mennucci, H. P. Hratchian, 
 J. V. Ortiz, A. F. Izmaylov, J. L. Sonnenberg, D. Williams-Young, 
 F. Ding, F. Lipparini, F. Egidi, J. Goings, B. Peng, A. Petrone, 
 T. Henderson, D. Ranasinghe, V. G. Zakrzewski, J. Gao, N. Rega, 
 G. Zheng, W. Liang, M. Hada, M. Ehara, K. Toyota, R. Fukuda, 
 J. Hasegawa, M. Ishida, T. Nakajima, Y. Honda, O. Kitao, H. Nakai, 
 T. Vreven, K. Throssell, J. A. Montgomery, Jr., J. E. Peralta, 
 F. Ogliaro, M. J. Bearpark, J. J. Heyd, E. N. Brothers, K. N. Kudin, 
 V. N. Staroverov, T. A. Keith, R. Kobayashi, J. Normand, 
 K. Raghavachari, A. P. Rendell, J. C. Burant, S. S. Iyengar, 
 J. Tomasi, M. Cossi, J. M. Millam, M. Klene, C. Adamo, R. Cammi, 
 J. W. Ochterski, R. L. Martin, K. Morokuma, O. Farkas, 
 J. B. Foresman, and D. J. Fox, Gaussian, Inc., Wallingford CT, 2019.
 
 ******************************************
 Gaussian 16:  ES64L-G16RevC.01  3-Jul-2019
                22-Aug-2025 
 ******************************************
 %mem=10GB
 %nprocs=8
 Will use up to    8 processors via shared memory.
 -----------------------------------------
 # sp b3lyp/6-311g** Force nosymm scf=(qc)
 -----------------------------------------
 1/10=4,30=1,38=1/1,3;
 2/12=2,15=1,17=6,18=5,40=1/2;
 3/5=4,6=6,7=101,11=2,25=1,30=1,71=2,74=-5,140=1/1,2,3;
 4//1;
 5/5=2,8=3,38=5,98=1/8;
 8/6=4,10=90,11=11/1;
 11/6=1,8=1,9=11,15=111,16=1,31=1/1,2,10;
 10/6=1,31=1/2;
 6/7=2,8=2,9=2,10=2,28=1/1;
 7/8=1,10=1,25=1,30=1/1,2,3,16;
 1/10=4,30=1/3;
 99//99;
 -------------------
 Title Card Required
 -------------------
 Symbolic Z-matrix:
 Charge =  0 Multiplicity = 2
 H                     0.        0.        0. 
 H                    -2.5       0.        0. 
 F                     2.1       0.        0. 
 

 GradGradGradGradGradGradGradGradGradGradGradGradGradGradGradGradGradGrad
 Berny optimization.
 Initialization pass.
 Trust Radius=3.00D-01 FncErr=1.00D-07 GrdErr=1.00D-07 EigMax=2.50D+02 EigMin=1.00D-04
 Number of steps in this run=      2 maximum allowed number of steps=      2.
 GradGradGradGradGradGradGradGradGradGradGradGradGradGradGradGradGradGrad

                          Input orientation:                          
 ---------------------------------------------------------------------
 Center     Atomic      Atomic             Coordinates (Angstroms)
 Number     Number       Type             X           Y           Z
 ---------------------------------------------------------------------
      1          1           0        0.000000    0.000000    0.000000
      2          1           0       -2.500000    0.000000    0.000000
      3          9           0        2.100000    0.000000    0.000000
 ---------------------------------------------------------------------
                    Distance matrix (angstroms):
                    1          2          3
     1  H    0.000000
     2  H    2.500000   0.000000
     3  F    2.100000   4.600000   0.000000
 Symmetry turned off by external request.
 Stoichiometry    FH2(2)
 Framework group  C*V[C*(HHF)]
 Deg. of freedom     2
 Full point group                 C*V     NOp   4
 Rotational constants (GHZ):           0.0000000          21.4140614          21.4140614
 Standard basis: 6-311G(d,p) (5D, 7F)
    30 basis functions,    48 primitive gaussians,    31 cartesian basis functions
     6 alpha electrons        5 beta electrons
       nuclear repulsion energy         3.5149199339 Hartrees.
 NAtoms=    3 NActive=    3 NUniq=    3 SFac= 1.00D+00 NAtFMM=   60 NAOKFM=F Big=F
 Integral buffers will be    131072 words long.
 Raffenetti 2 integral format.
 Two-electron integral symmetry is turned off.
 One-electron integrals computed using PRISM.
 NBasis=    30 RedAO= T EigKep=  8.38D-02  NBF=    30
 NBsUse=    30 1.00D-06 EigRej= -1.00D+00 NBFU=    30
 ExpMin= 1.03D-01 ExpMax= 1.14D+04 ExpMxC= 1.72D+03 IAcc=3 IRadAn=         5 AccDes= 0.00D+00
 Harris functional with IExCor=  402 and IRadAn=       5 diagonalized for initial guess.
 HarFok:  IExCor=  402 AccDes= 0.00D+00 IRadAn=         5 IDoV= 1 UseB2=F ITyADJ=14
 ICtDFT=  3500011 ScaDFX=  1.000000  1.000000  1.000000  1.000000
 FoFCou: FMM=F IPFlag=           0 FMFlag=      100000 FMFlg1=           0
         NFxFlg=           0 DoJE=T BraDBF=F KetDBF=T FulRan=T
         wScrn=  0.000000 ICntrl=       500 IOpCl=  0 I1Cent=   200000004 NGrid=           0
         NMat0=    1 NMatS0=      1 NMatT0=    0 NMatD0=    1 NMtDS0=    0 NMtDT0=    0
 Symmetry not used in FoFCou.
 Initial guess <Sx>= 0.0000 <Sy>= 0.0000 <Sz>= 0.5000 <S**2>= 0.7500 S= 0.5000
 Keep R1 and R2 ints in memory in canonical form, NReq=7127049.
 Gradient too large for Newton-Raphson -- use scaled steepest descent instead.
  Beta Gap=    -0.385 HL deriv= 2.24D-16 Rot set to   3.13D-01
     Minimum is close to point  3 DX=  2.05D-02 DF= -3.17D-04 DXR=  4.88D-02 DFR=  2.52D-03 which will be used.
 Gradient too large for Newton-Raphson -- use scaled steepest descent instead.
 Gradient too large for Newton-Raphson -- use scaled steepest descent instead.
     Minimum is close to point  3 DX=  1.13D-02 DF= -5.22D-05 DXR=  5.36D-02 DFR=  2.88D-03 which will be used.
 Gradient too large for Newton-Raphson -- use scaled steepest descent instead.
 Gradient too large for Newton-Raphson -- use scaled steepest descent instead.
     Accept linear search using points  1 and  2.
 Gradient too large for Newton-Raphson -- use scaled steepest descent instead.
 Gradient too large for Newton-Raphson -- use scaled steepest descent instead.
     Accept linear search using points  1 and  2.
 Gradient too large for Newton-Raphson -- use scaled steepest descent instead.
     Accept linear search using points  1 and  2.
 Gradient too large for Newton-Raphson -- use scaled steepest descent instead.
     Minimum is close to point  2 DX=  2.88D-02 DF= -2.02D-06 DXR=  8.76D-02 DFR=  7.73D-03 which will be used.
 Gradient too large for Newton-Raphson -- use scaled steepest descent instead.
 Gradient too large for Newton-Raphson -- use scaled steepest descent instead.
     Minimum is close to point  3 DX= -1.77D-02 DF= -3.30D-06 DXR=  6.28D-02 DFR=  3.96D-03 which will be used.
 Gradient too large for Newton-Raphson -- use scaled steepest descent instead.
     Accept linear search using points  1 and  2.
 Gradient too large for Newton-Raphson -- use scaled steepest descent instead.
     Accept linear search using points  1 and  2.
 Gradient too large for Newton-Raphson -- use scaled steepest descent instead.
     Minimum is close to point  5 DX=  2.32D-01 DF= -7.82D-05 DXR=  7.42D-02 DFR=  7.80D-03 which will be used.
 Gradient too large for Newton-Raphson -- use scaled steepest descent instead.
 Gradient too large for Newton-Raphson -- use scaled steepest descent instead.
     Accept linear search using points  1 and  2.
     Minimum is close to point  2 DX= -1.30D-04 DF= -3.11D-11 DXR=  1.18D-04 DFR=  1.68D-08 which will be used.
 Gradient too large for Newton-Raphson -- use scaled steepest descent instead.
     Accept linear search using points  1 and  2.
 Gradient too large for Newton-Raphson -- use scaled steepest descent instead.
     Accept linear search using points  3 and  4.
 LinEq1:  Iter=  0 NonCon=     1 RMS=8.99D-04 Max=1.02D-02 NDo=     1
 AX will form     1 AO Fock derivatives at one time.
 LinEq1:  Iter=  1 NonCon=     1 RMS=7.30D-04 Max=8.13D-03 NDo=     1
 LinEq1:  Iter=  2 NonCon=     1 RMS=3.91D-04 Max=4.56D-03 NDo=     1
 LinEq1:  Iter=  3 NonCon=     1 RMS=1.14D-04 Max=7.49D-04 NDo=     1
 LinEq1:  Iter=  4 NonCon=     1 RMS=2.30D-05 Max=3.07D-04 NDo=     1
 LinEq1:  Iter=  5 NonCon=     1 RMS=3.22D-06 Max=3.14D-05 NDo=     1
 LinEq1:  Iter=  6 NonCon=     1 RMS=7.20D-07 Max=6.58D-06 NDo=     1
 LinEq1:  Iter=  7 NonCon=     1 RMS=6.82D-08 Max=7.62D-07 NDo=     1
 LinEq1:  Iter=  8 NonCon=     1 RMS=7.35D-09 Max=6.38D-08 NDo=     1
 LinEq1:  Iter=  9 NonCon=     0 RMS=6.14D-10 Max=4.95D-09 NDo=     1
 Linear equations converged to 1.640D-09 1.640D-08 after     9 iterations.
     Minimum is close to point  2 DX= -5.91D-03 DF= -1.09D-08 DXR=  5.95D-03 DFR=  3.54D-05 which will be used.
 LinEq1:  Iter=  0 NonCon=     1 RMS=2.98D-04 Max=4.59D-03 NDo=     1
 LinEq1:  Iter=  1 NonCon=     1 RMS=1.33D-04 Max=1.39D-03 NDo=     1
 LinEq1:  Iter=  2 NonCon=     1 RMS=4.27D-05 Max=4.00D-04 NDo=     1
 LinEq1:  Iter=  3 NonCon=     1 RMS=1.74D-05 Max=2.09D-04 NDo=     1
 LinEq1:  Iter=  4 NonCon=     1 RMS=5.97D-06 Max=3.93D-05 NDo=     1
 LinEq1:  Iter=  5 NonCon=     1 RMS=1.07D-06 Max=7.90D-06 NDo=     1
 LinEq1:  Iter=  6 NonCon=     1 RMS=2.49D-07 Max=2.25D-06 NDo=     1
 LinEq1:  Iter=  7 NonCon=     1 RMS=3.32D-08 Max=2.48D-07 NDo=     1
 LinEq1:  Iter=  8 NonCon=     1 RMS=3.39D-09 Max=3.62D-08 NDo=     1
 LinEq1:  Iter=  9 NonCon=     0 RMS=2.24D-10 Max=2.22D-09 NDo=     1
 Linear equations converged to 1.640D-09 1.640D-08 after     9 iterations.
     Accept linear search using points  1 and  2.
     Minimum is close to point  2 DX= -6.36D-04 DF= -1.53D-12 DXR=  6.36D-04 DFR=  4.05D-07 which will be used.
 LinEq1:  Iter=  0 NonCon=     1 RMS=1.13D-06 Max=1.58D-05 NDo=     1
 LinEq1:  Iter=  1 NonCon=     1 RMS=8.52D-07 Max=1.02D-05 NDo=     1
 LinEq1:  Iter=  2 NonCon=     1 RMS=4.28D-07 Max=4.00D-06 NDo=     1
 LinEq1:  Iter=  3 NonCon=     1 RMS=1.18D-07 Max=8.32D-07 NDo=     1
 LinEq1:  Iter=  4 NonCon=     1 RMS=1.58D-08 Max=1.56D-07 NDo=     1
 LinEq1:  Iter=  5 NonCon=     1 RMS=3.01D-09 Max=2.71D-08 NDo=     1
 LinEq1:  Iter=  6 NonCon=     1 RMS=8.96D-10 Max=7.38D-09 NDo=     1
 LinEq1:  Iter=  7 NonCon=     1 RMS=1.28D-10 Max=1.34D-09 NDo=     1
 LinEq1:  Iter=  8 NonCon=     0 RMS=1.22D-11 Max=9.38D-11 NDo=     1
 Linear equations converged to 4.468D-11 4.468D-10 after     8 iterations.
 SCF Done:  E(UB3LYP) =  -100.784795217     a.u. after   22 cycles
            Convg  =    0.1665D-08                    83 Fock formations.
              S**2 =  1.3909                  -V/T =  2.0026
 <Sx>= 0.0000 <Sy>= 0.0000 <Sz>= 0.5000 <S**2>= 1.3909 S= 0.7810
 <L.S>=  0.00000000000    
 Annihilation of the first spin contaminant:
 S**2 before annihilation     1.3909,   after     0.7511
 DoSCS=F DFT=T ScalE2(SS,OS)=  1.000000  1.000000
 Range of M.O.s used for correlation:     1    30
 NBasis=    30 NAE=     6 NBE=     5 NFC=     0 NFV=     0
 NROrb=     30 NOA=     6 NOB=     5 NVA=    24 NVB=    25
 Symmetrizing basis deriv contribution to polar:
 IMax=3 JMax=2 DiffMx= 0.00D+00
 G2DrvN: will do     4 centers at a time, making    1 passes.
 Calling FoFCou, ICntrl=  3107 FMM=F I1Cent=   0 AccDes= 0.00D+00.
 End of G2Drv F.D. properties file   721 does not exist.
 End of G2Drv F.D. properties file   722 does not exist.
 End of G2Drv F.D. properties file   788 does not exist.
          IDoAtm=111
          Differentiating once with respect to electric field.
                with respect to dipole field.
          Differentiating once with respect to nuclear coordinates.
 Keep R1 and R2 ints in memory in canonical form, NReq=7101519.
          There are    12 degrees of freedom in the 1st order CPHF.  IDoFFX=6 NUNeed=     3.
      9 vectors produced by pass  0 Test12= 2.24D-15 8.33D-09 XBig12= 1.33D+02 1.07D+01.
 AX will form     9 AO Fock derivatives at one time.
      9 vectors produced by pass  1 Test12= 2.24D-15 8.33D-09 XBig12= 2.70D+01 2.78D+00.
      9 vectors produced by pass  2 Test12= 2.24D-15 8.33D-09 XBig12= 1.91D+00 4.74D-01.
      9 vectors produced by pass  3 Test12= 2.24D-15 8.33D-09 XBig12= 1.36D-02 5.59D-02.
      7 vectors produced by pass  4 Test12= 2.24D-15 8.33D-09 XBig12= 3.22D-05 2.05D-03.
      7 vectors produced by pass  5 Test12= 2.24D-15 8.33D-09 XBig12= 1.04D-07 1.17D-04.
      1 vectors produced by pass  6 Test12= 2.24D-15 8.33D-09 XBig12= 9.82D-11 3.85D-06.
      1 vectors produced by pass  7 Test12= 2.24D-15 8.33D-09 XBig12= 1.29D-13 1.20D-07.
 InvSVY:  IOpt=1 It=  1 EMax= 6.66D-16
 Solved reduced A of dimension    52 with     9 vectors.
 Isotropic polarizability for W=    0.000000       14.39 Bohr**3.
 End of Minotr F.D. properties file   721 does not exist.
 End of Minotr F.D. properties file   722 does not exist.
 End of Minotr F.D. properties file   788 does not exist.

 **********************************************************************

            Population analysis using the SCF Density.

 **********************************************************************

 Alpha  occ. eigenvalues --  -24.68934  -1.15252  -0.47964  -0.40343  -0.40343
 Alpha  occ. eigenvalues --   -0.34628
 Alpha virt. eigenvalues --   -0.13459   0.24148   0.31600   0.89035   0.94798
 Alpha virt. eigenvalues --    0.94798   1.06310   1.23023   1.23023   1.26080
 Alpha virt. eigenvalues --    1.35624   1.35624   1.55310   2.13913   2.29736
 Alpha virt. eigenvalues --    3.73267   3.74528   3.74528   3.80425   3.80425
 Alpha virt. eigenvalues --    6.00043   6.00043   6.00466  66.55203
  Beta  occ. eigenvalues --  -24.66422  -1.08193  -0.37859  -0.37859  -0.37150
  Beta virt. eigenvalues --   -0.21447  -0.09869   0.25167   0.34640   0.91967
  Beta virt. eigenvalues --    0.95705   0.95705   1.08781   1.21971   1.21971
  Beta virt. eigenvalues --    1.41259   1.41259   1.42544   1.48262   2.13147
  Beta virt. eigenvalues --    2.36482   3.81720   3.81720   3.82317   3.82317
  Beta virt. eigenvalues --    3.84025   6.02168   6.02168   6.11482  66.57685
          Condensed to atoms (all electrons):
               1          2          3
     1  H    0.788922   0.018417   0.042930
     2  H    0.018417   0.965179  -0.000057
     3  F    0.042930  -0.000057   9.123319
          Atomic-Atomic Spin Densities.
               1          2          3
     1  H   -0.749972   0.008609  -0.019282
     2  H    0.008609   0.961508  -0.000090
     3  F   -0.019282  -0.000090   0.809988
 Mulliken charges and spin densities:
               1          2
     1  H    0.149732  -0.760644
     2  H    0.016460   0.970028
     3  F   -0.166192   0.790616
 Sum of Mulliken charges =   0.00000   1.00000
 Mulliken charges and spin densities with hydrogens summed into heavy atoms:
               1          2
     3  F    0.000000   1.000000
 APT charges:
               1
     1  H    0.000658
     2  H   -0.012264
     3  F    0.011606
 Sum of APT charges =   0.00000
 APT charges with hydrogens summed into heavy atoms:
               1
     3  F    0.000000
 Electronic spatial extent (au):  <R**2>=            182.2129
 Charge=              0.0000 electrons
 Dipole moment (field-independent basis, Debye):
    X=             -1.9354    Y=              0.0000    Z=              0.0000  Tot=              1.9354
 Quadrupole moment (field-independent basis, Debye-Ang):
   XX=             -9.3331   YY=             -7.5451   ZZ=             -7.5451
   XY=             -0.0000   XZ=              0.0000   YZ=             -0.0000
 Traceless Quadrupole moment (field-independent basis, Debye-Ang):
   XX=             -1.1920   YY=              0.5960   ZZ=              0.5960
   XY=             -0.0000   XZ=              0.0000   YZ=             -0.0000
 Octapole moment (field-independent basis, Debye-Ang**2):
  XXX=            -25.6843  YYY=             -0.0000  ZZZ=              0.0000  XYY=             -7.1453
  XXY=             -0.0000  XXZ=              0.0000  XZZ=             -7.1453  YZZ=             -0.0000
  YYZ=              0.0000  XYZ=             -0.0000
 Hexadecapole moment (field-independent basis, Debye-Ang**3):
 XXXX=           -176.8534 YYYY=             -6.0873 ZZZZ=             -6.0873 XXXY=             -0.0000
 XXXZ=              0.0000 YYYX=             -0.0000 YYYZ=             -0.0000 ZZZX=              0.0000
 ZZZY=             -0.0000 XXYY=            -32.4692 XXZZ=            -32.4692 YYZZ=             -2.0291
 XXYZ=             -0.0000 YYXZ=              0.0000 ZZXY=             -0.0000
 N-N= 3.514919933900D+00 E-N=-2.483910830464D+02  KE= 1.005248156633D+02
  Exact polarizability:      39.070      -0.000       2.044       0.000      -0.000       2.044
 Approx polarizability:      46.349       0.000       1.937       0.000      -0.000       1.937
                          Isotropic Fermi Contact Couplings
        Atom                 a.u.       MegaHertz       Gauss      10(-4) cm-1
     1  H(1)              -0.23757   -1061.92322    -378.92061    -354.21946
     2  H(1)               0.28870    1290.46750     460.47089     430.45363
     3  F(19)             -0.01348     -56.72923     -20.24240     -18.92283
 --------------------------------------------------------
       Center         ----  Spin Dipole Couplings  ----
                      3XX-RR        3YY-RR        3ZZ-RR
 --------------------------------------------------------
     1   Atom        0.044386     -0.022193     -0.022193
     2   Atom       -0.010843      0.005421      0.005421
     3   Atom        5.066332     -2.533166     -2.533166
 --------------------------------------------------------
                        XY            XZ            YZ
 --------------------------------------------------------
     1   Atom        0.000000     -0.000000      0.000000
     2   Atom        0.000000     -0.000000      0.000000
     3   Atom       -0.000000      0.000000      0.000000
 --------------------------------------------------------


 ---------------------------------------------------------------------------------
              Anisotropic Spin Dipole Couplings in Principal Axis System
 ---------------------------------------------------------------------------------

       Atom             a.u.   MegaHertz   Gauss  10(-4) cm-1        Axes

              Baa    -0.0222   -11.841    -4.225    -3.950 -0.0000  0.9980 -0.0632
     1 H(1)   Bbb    -0.0222   -11.841    -4.225    -3.950  0.0000  0.0632  0.9980
              Bcc     0.0444    23.682     8.450     7.900  1.0000  0.0000 -0.0000
 
              Baa    -0.0108    -5.785    -2.064    -1.930  1.0000 -0.0000  0.0000
     2 H(1)   Bbb     0.0054     2.893     1.032     0.965  0.0000  0.7094 -0.7048
              Bcc     0.0054     2.893     1.032     0.965 -0.0000  0.7048  0.7094
 
              Baa    -2.5332 -1272.221  -453.960  -424.367 -0.0000 -0.0217  0.9998
     3 F(19)  Bbb    -2.5332 -1272.221  -453.960  -424.367  0.0000  0.9998  0.0217
              Bcc     5.0663  2544.442   907.920   848.734  1.0000 -0.0000  0.0000
 

 ---------------------------------------------------------------------------------

 Calling FoFJK, ICntrl=    100127 FMM=F ISym2X=0 I1Cent= 0 IOpClX= 1 NMat=1 NMatS=1 NMatT=0.
 Full mass-weighted force constant matrix:
 Low frequencies ----1091.0385 -391.5743   -0.0017   -0.0015   -0.0009  159.6937
 Low frequencies ---  159.6937  472.7499  472.7499
 ******    2 imaginary frequencies (negative Signs) ****** 
 Diagonal vibrational polarizability:
        5.0131235       2.3988571       2.3988571
 Harmonic frequencies (cm**-1), IR intensities (KM/Mole), Raman scattering
 activities (A**4/AMU), depolarization ratios for plane and unpolarized
 incident light, reduced masses (AMU), force constants (mDyne/A),
 and normal coordinates:
                      1                      2                      3
                      A                      A                      A
 Frequencies --  -1091.0385              -391.5743               455.2052
 Red. masses --      1.0389                 1.0732                 1.0202
 Frc consts  --      0.7286                 0.0970                 0.1246
 IR Inten    --     87.1485                17.3374                18.4708
  Atom  AN      X      Y      Z        X      Y      Z        X      Y      Z
     1   1     0.98  -0.00  -0.00     0.15  -0.00  -0.00     0.00  -0.07   0.91
     2   1    -0.20   0.00   0.00     0.99   0.00   0.00     0.00   0.03  -0.41
     3   9    -0.04   0.00   0.00    -0.06   0.00   0.00    -0.00   0.00  -0.03
                      4
                      A
 Frequencies --    455.2052
 Red. masses --      1.0202
 Frc consts  --      0.1246
 IR Inten    --     18.4708
  Atom  AN      X      Y      Z
     1   1     0.00   0.91   0.07
     2   1     0.00  -0.41  -0.03
     3   9    -0.00  -0.03  -0.00

 -------------------
 - Thermochemistry -
 -------------------
 Temperature   298.150 Kelvin.  Pressure   1.00000 Atm.
 Atom     1 has atomic number  1 and mass   1.00783
 Atom     2 has atomic number  1 and mass   1.00783
 Atom     3 has atomic number  9 and mass  18.99840
 Molecular mass:    21.01405 amu.
 Principal axes and moments of inertia in atomic units:
                           1         2         3
     Eigenvalues --     0.00000  84.27832  84.27832
           X            1.00000  -0.00000   0.00000
           Y            0.00000   1.00000   0.00000
           Z            0.00000   0.00000   1.00000
 This molecule is a prolate symmetric top.
 Rotational symmetry number  1.
 Rotational temperature (Kelvin)      1.02771
 Rotational constant (GHZ):          21.414061
    2 imaginary frequencies ignored.
 Zero-point vibrational energy       5445.5 (Joules/Mol)
                                    1.30150 (Kcal/Mol)
 Warning -- explicit consideration of   2 degrees of freedom as
           vibrations may cause significant error
 Vibrational temperatures:    654.94   654.94
          (Kelvin)
 
 Zero-point correction=                           0.002074 (Hartree/Particle)
 Thermal correction to Energy=                    0.004953
 Thermal correction to Enthalpy=                  0.005898
 Thermal correction to Gibbs Free Energy=        -0.018458
 Sum of electronic and zero-point Energies=           -100.782721
 Sum of electronic and thermal Energies=              -100.779842
 Sum of electronic and thermal Enthalpies=            -100.778898
 Sum of electronic and thermal Free Energies=         -100.803253
 
                     E (Thermal)             CV                S
                      KCal/Mol        Cal/Mol-Kelvin    Cal/Mol-Kelvin
 Total                    3.108              7.667             51.261
 Electronic               0.000              0.000              1.377
 Translational            0.889              2.981             35.068
 Rotational               0.592              1.987             13.255
 Vibrational              1.627              2.699              1.560
 Vibration     1          0.814              1.349              0.780
 Vibration     2          0.814              1.349              0.780
                       Q            Log10(Q)             Ln(Q)
 Total Bot       0.309152D+09          8.490172         19.549344
 Total V=0       0.278084D+10          9.444176         21.746020
 Vib (Bot)       0.140722D+00         -0.851639         -1.960972
 Vib (Bot)    1  0.375129D+00         -0.425820         -0.980486
 Vib (Bot)    2  0.375129D+00         -0.425820         -0.980486
 Vib (V=0)       0.126580D+01          0.102365          0.235703
 Vib (V=0)    1  0.112508D+01          0.051182          0.117852
 Vib (V=0)    2  0.112508D+01          0.051182          0.117852
 Electronic      0.200000D+01          0.301030          0.693147
 Translational   0.378633D+07          6.578219         15.146908
 Rotational      0.290110D+03          2.462563          5.670261
 -------------------------------------------------------------------
 Center     Atomic                   Forces (Hartrees/Bohr)
 Number     Number              X              Y              Z
 -------------------------------------------------------------------
      1        1           0.022497344    0.000000000   -0.000000000
      2        1           0.005060228   -0.000000000   -0.000000000
      3        9          -0.027557572   -0.000000000    0.000000000
 -------------------------------------------------------------------
 Cartesian Forces:  Max     0.027557572 RMS     0.011977554

 GradGradGradGradGradGradGradGradGradGradGradGradGradGradGradGradGradGrad
 Berny optimization.
 Search for a local minimum.
 Step number   1 out of a maximum of    2
 All quantities printed in internal units (Hartrees-Bohrs-Radians)
 Second derivative matrix not updated -- analytic derivatives used.
 The second derivative matrix:
                          X1        Y1        Z1        X2        Y2
           X1          -0.04239
           Y1           0.00000   0.00805
           Z1           0.00000   0.00000   0.00805
           X2           0.00766   0.00000  -0.00000  -0.00705
           Y2           0.00000  -0.00109   0.00000  -0.00000   0.00108
           Z2          -0.00000   0.00000  -0.00109   0.00000   0.00000
           X3           0.03473  -0.00000  -0.00000  -0.00061  -0.00000
           Y3          -0.00000  -0.00696  -0.00000  -0.00000   0.00001
           Z3          -0.00000  -0.00000  -0.00696  -0.00000  -0.00000
                          Z2        X3        Y3        Z3
           Z2           0.00108
           X3           0.00000  -0.03412
           Y3          -0.00000   0.00000   0.00695
           Z3           0.00001   0.00000   0.00000   0.00695
 ITU=  0
     Eigenvalues ---   -0.06241  -0.00874   0.00968   0.00968
 Eigenvalue     1 is  -6.24D-02 should be greater than     0.000000 Eigenvector:
                          X1        X3        X2        Z1        Z2
   1                    0.94773  -0.31895   0.00912  -0.00000   0.00000
                          Z3        Y1        Y2        Y3
   1                    0.00000  -0.00000   0.00000   0.00000
 Eigenvalue     2 is  -8.74D-03 should be greater than     0.000000 Eigenvector:
                          X2        X3        X1        Z1        Z2
   1                    0.95342  -0.28300  -0.10442  -0.00000   0.00000
                          Z3        Y1        Y2        Y3
   1                    0.00000  -0.00000   0.00000   0.00000
 Quadratic step=1.271D+00 exceeds max=3.000D-01 adjusted using Lamda=-5.601D-02.
 Angle between NR and scaled steps=  35.73 degrees.
 Angle between quadratic step and forces=  30.29 degrees.
 Linear search not attempted -- first point.
 B after Tr=    -0.084084    0.000000    0.000000
         Rot=    0.999270    0.038197    0.000000   -0.000000 Ang=   4.38 deg.
 Variable       Old X    -DE/DX   Delta X   Delta X   Delta X     New X
                                 (Linear)    (Quad)   (Total)
    X1        0.00000   0.02250   0.00000   0.22478   0.14070   0.14070
    Y1        0.00000   0.00000   0.00000   0.00000  -0.00000  -0.00000
    Z1        0.00000  -0.00000   0.00000  -0.00000  -0.00000  -0.00000
    X2       -4.72432   0.00506   0.00000   0.15360   0.06951  -4.65480
    Y2        0.00000  -0.00000   0.00000  -0.00000   0.00000   0.00000
    Z2        0.00000  -0.00000   0.00000   0.00000   0.00000   0.00000
    X3        3.96842  -0.02756   0.00000  -0.12613  -0.21021   3.75821
    Y3        0.00000  -0.00000   0.00000  -0.00000   0.00000   0.00000
    Z3        0.00000   0.00000   0.00000   0.00000   0.00000   0.00000
         Item               Value     Threshold  Converged?
 Maximum Force            0.027558     0.000450     NO 
 RMS     Force            0.011978     0.000300     NO 
 Maximum Displacement     0.210211     0.001800     NO 
 RMS     Displacement     0.087443     0.001200     NO 
 Predicted change in Energy=-1.144367D-02
 GradGradGradGradGradGradGradGradGradGradGradGradGradGradGradGradGradGrad


 ----------------------------------------------------------------------

 Electric dipole moment (input orientation):
 (Debye = 10**-18 statcoulomb cm , SI units = C m)
                  (au)            (Debye)         (10**-30 SI)
   Tot        0.761428D+00      0.193536D+01      0.645566D+01
   x         -0.761428D+00     -0.193536D+01     -0.645566D+01
   y          0.000000D+00      0.000000D+00      0.000000D+00
   z          0.000000D+00      0.000000D+00      0.000000D+00

 Dipole polarizability, Alpha (input orientation).
 (esu units = cm**3 , SI units = C**2 m**2 J**-1)
 Alpha(0;0):
               (au)            (10**-24 esu)      (10**-40 SI)
   iso        0.143859D+02      0.213176D+01      0.237191D+01
   aniso      0.370261D+02      0.548670D+01      0.610478D+01
   xx         0.390699D+02      0.578957D+01      0.644176D+01
   yx         0.000000D+00      0.000000D+00      0.000000D+00
   yy         0.204382D+01      0.302863D+00      0.336981D+00
   zx         0.000000D+00      0.000000D+00      0.000000D+00
   zy         0.000000D+00      0.000000D+00      0.000000D+00
   zz         0.204382D+01      0.302863D+00      0.336981D+00

 ----------------------------------------------------------------------

 Dipole orientation:
     1          0.00000000          0.00000000          0.00000000
     1         -0.00000000         -0.00000000          4.72431531
     9          0.00000000          0.00000000         -3.96842486

 Electric dipole moment (dipole orientation):
 (Debye = 10**-18 statcoulomb cm , SI units = C m)
                  (au)            (Debye)         (10**-30 SI)
   Tot        0.761428D+00      0.193536D+01      0.645566D+01
   x          0.000000D+00      0.000000D+00      0.000000D+00
   y          0.000000D+00      0.000000D+00      0.000000D+00
   z          0.761428D+00      0.193536D+01      0.645566D+01

 Dipole polarizability, Alpha (dipole orientation).
 (esu units = cm**3 , SI units = C**2 m**2 J**-1)
 Alpha(0;0):
               (au)            (10**-24 esu)      (10**-40 SI)
   iso        0.143859D+02      0.213176D+01      0.237191D+01
   aniso      0.370261D+02      0.548670D+01      0.610478D+01
   xx         0.204382D+01      0.302863D+00      0.336981D+00
   yx         0.000000D+00      0.000000D+00      0.000000D+00
   yy         0.204382D+01      0.302863D+00      0.336981D+00
   zx         0.000000D+00      0.000000D+00      0.000000D+00
   zy         0.000000D+00      0.000000D+00      0.000000D+00
   zz         0.390699D+02      0.578957D+01      0.644176D+01

 ----------------------------------------------------------------------
 Unable to Open any file for archive entry.
 1\1\GINC-DESKTOP-B3RIHJD\Freq\UB3LYP\6-311G(d,p)\F1H2(2)\GARYX\22-Aug-
 2025\0\\# sp b3lyp/6-311g** Force nosymm scf=(qc)\\Title Card Required
 \\0,2\H,0.,0.,0.\H,-2.5,0.,0.\F,2.1,0.,0.\\Version=ES64L-G16RevC.01\HF
 =-100.7847952\S2=1.390897\S2-1=0.\S2A=0.751084\RMSD=1.015e-10\RMSF=1.1
 98e-02\ZeroPoint=0.0020741\Thermal=0.0049534\ETot=-100.7798418\HTot=-1
 00.7788977\GTot=-100.8032534\Dipole=-0.7614284,0.,0.\DipoleDeriv=-0.30
 90281,0.,0.,0.,0.1555004,0.,0.,0.,0.1555004,-0.0699867,0.,0.,0.,0.0165
 974,0.,0.,0.,0.0165974,0.3790147,0.,0.,0.,-0.1720978,0.,0.,0.,-0.17209
 78\Polar=39.0699393,0.,2.0438237,0.,0.,2.0438237\Quadrupole=-0.8862352
 ,0.4431176,0.4431176,0.,0.,0.\PG=C*V [C*(H1H1F1)]\NImag=2\\-0.04239142
 ,0.,0.00804989,0.,0.,0.00804989,0.00766127,0.,0.,-0.00704687,0.,-0.001
 08632,0.,0.,0.00107772,0.,0.,-0.00108632,0.,0.,0.00107772,0.03473015,0
 .,0.,-0.00061440,0.,0.,-0.03411575,0.,-0.00696357,0.,0.,0.00000860,0.,
 0.,0.00695498,0.,0.,-0.00696357,0.,0.,0.00000860,0.,0.,0.00695498\\-0.
 02249734,0.,0.,-0.00506023,0.,0.,0.02755757,0.,0.\\\@
 The archive entry for this job was punched.


 KNOWING HOW CONTENTED, FREE, AND JOYFUL IS LIFE IN
 THE REALMS OF SCIENCE, ONE FERVENTLY WISHES THAT
 MANY WOULD ENTER HER PORTALS.
   --  DMITRI IVANOVICH MENDELEEV
 "FIRST PRINCIPLES OF CHEMISTRY", LONGMANS, GREEN,
 AND CO.  LONDON, 1891
 Job cpu time:       0 days  0 hours  0 minutes 21.1 seconds.
 Elapsed time:       0 days  0 hours  0 minutes  2.9 seconds.
 File lengths (MBytes):  RWF=      6 Int=      0 D2E=      0 Chk=      1 Scr=      1
 Normal termination of Gaussian 16 at Fri Aug 22 17:04:18 2025.
