 Entering Gaussian System, Link 0=g16
 Initial command:
 /home/garyx/gaussian/g16/l1.exe "/tmp/gaussian_scratch/Gau-1000968.inp" -scrdir="/tmp/gaussian_scratch/"
 Entering Link 1 = /home/garyx/gaussian/g16/l1.exe PID=   1000970.
  
 Copyright (c) 1988-2019, Gaussian, Inc.  All Rights Reserved.
  
 This is part of the Gaussian(R) 16 program.  It is based on
 the Gaussian(R) 09 system (copyright 2009, Gaussian, Inc.),
 the Gaussian(R) 03 system (copyright 2003, Gaussian, Inc.),
 the Gaussian(R) 98 system (copyright 1998, Gaussian, Inc.),
 the Gaussian(R) 94 system (copyright 1995, Gaussian, Inc.),
 the Gaussian 92(TM) system (copyright 1992, Gaussian, Inc.),
 the Gaussian 90(TM) system (copyright 1990, Gaussian, Inc.),
 the Gaussian 88(TM) system (copyright 1988, Gaussian, Inc.),
 the Gaussian 86(TM) system (copyright 1986, Carnegie Mellon
 University), and the Gaussian 82(TM) system (copyright 1983,
 Carnegie Mellon University). Gaussian is a federally registered
 trademark of Gaussian, Inc.
  
 This software contains proprietary and confidential information,
 including trade secrets, belonging to Gaussian, Inc.
  
 This software is provided under written license and may be
 used, copied, transmitted, or stored only in accord with that
 written license.
  
 The following legend is applicable only to US Government
 contracts under FAR:
  
                    RESTRICTED RIGHTS LEGEND
  
 Use, reproduction and disclosure by the US Government is
 subject to restrictions as set forth in subparagraphs (a)
 and (c) of the Commercial Computer Software - Restricted
 Rights clause in FAR 52.227-19.
  
 Gaussian, Inc.
 340 Quinnipiac St., Bldg. 40, Wallingford CT 06492
  
  
 ---------------------------------------------------------------
 Warning -- This program may not be used in any manner that
 competes with the business of Gaussian, Inc. or will provide
 assistance to any competitor of Gaussian, Inc.  The licensee
 of this program is prohibited from giving any competitor of
 Gaussian, Inc. access to this program.  By using this program,
 the user acknowledges that Gaussian, Inc. is engaged in the
 business of creating and licensing software in the field of
 computational chemistry and represents and warrants to the
 licensee that it is not a competitor of Gaussian, Inc. and that
 it will not use this program in any manner prohibited above.
 ---------------------------------------------------------------
  

 Cite this work as:
 Gaussian 16, Revision C.01,
 M. J. Frisch, G. W. Trucks, H. B. Schlegel, G. E. Scuseria, 
 M. A. Robb, J. R. Cheeseman, G. Scalmani, V. Barone, 
 G. A. Petersson, H. Nakatsuji, X. Li, M. Caricato, A. V. Marenich, 
 J. Bloino, B. G. Janesko, R. Gomperts, B. Mennucci, H. P. Hratchian, 
 J. V. Ortiz, A. F. Izmaylov, J. L. Sonnenberg, D. Williams-Young, 
 F. Ding, F. Lipparini, F. Egidi, J. Goings, B. Peng, A. Petrone, 
 T. Henderson, D. Ranasinghe, V. G. Zakrzewski, J. Gao, N. Rega, 
 G. Zheng, W. Liang, M. Hada, M. Ehara, K. Toyota, R. Fukuda, 
 J. Hasegawa, M. Ishida, T. Nakajima, Y. Honda, O. Kitao, H. Nakai, 
 T. Vreven, K. Throssell, J. A. Montgomery, Jr., J. E. Peralta, 
 F. Ogliaro, M. J. Bearpark, J. J. Heyd, E. N. Brothers, K. N. Kudin, 
 V. N. Staroverov, T. A. Keith, R. Kobayashi, J. Normand, 
 K. Raghavachari, A. P. Rendell, J. C. Burant, S. S. Iyengar, 
 J. Tomasi, M. Cossi, J. M. Millam, M. Klene, C. Adamo, R. Cammi, 
 J. W. Ochterski, R. L. Martin, K. Morokuma, O. Farkas, 
 J. B. Foresman, and D. J. Fox, Gaussian, Inc., Wallingford CT, 2019.
 
 ******************************************
 Gaussian 16:  ES64L-G16RevC.01  3-Jul-2019
                22-Aug-2025 
 ******************************************
 %mem=10GB
 %nprocs=8
 Will use up to    8 processors via shared memory.
 -----------------------------------------
 # sp b3lyp/6-311g** Force nosymm scf=(qc)
 -----------------------------------------
 1/10=4,30=1,38=1/1,3;
 2/12=2,15=1,17=6,18=5,40=1/2;
 3/5=4,6=6,7=101,11=2,25=1,30=1,71=2,74=-5,140=1/1,2,3;
 4//1;
 5/5=2,8=3,38=5,98=1/8;
 8/6=4,10=90,11=11/1;
 11/6=1,8=1,9=11,15=111,16=1,31=1/1,2,10;
 10/6=1,31=1/2;
 6/7=2,8=2,9=2,10=2,28=1/1;
 7/8=1,10=1,25=1,30=1/1,2,3,16;
 1/10=4,30=1/3;
 99//99;
 -------------------
 Title Card Required
 -------------------
 Symbolic Z-matrix:
 Charge =  0 Multiplicity = 2
 H                     0.        0.        0. 
 H                    -3.2       0.        0. 
 F                     3.55      0.        0. 
 

 GradGradGradGradGradGradGradGradGradGradGradGradGradGradGradGradGradGrad
 Berny optimization.
 Initialization pass.
 Trust Radius=3.00D-01 FncErr=1.00D-07 GrdErr=1.00D-07 EigMax=2.50D+02 EigMin=1.00D-04
 Number of steps in this run=      2 maximum allowed number of steps=      2.
 GradGradGradGradGradGradGradGradGradGradGradGradGradGradGradGradGradGrad

                          Input orientation:                          
 ---------------------------------------------------------------------
 Center     Atomic      Atomic             Coordinates (Angstroms)
 Number     Number       Type             X           Y           Z
 ---------------------------------------------------------------------
      1          1           0        0.000000    0.000000    0.000000
      2          1           0       -3.200000    0.000000    0.000000
      3          9           0        3.550000    0.000000    0.000000
 ---------------------------------------------------------------------
                    Distance matrix (angstroms):
                    1          2          3
     1  H    0.000000
     2  H    3.200000   0.000000
     3  F    3.550000   6.750000   0.000000
 Symmetry turned off by external request.
 Stoichiometry    FH2(2)
 Framework group  C*V[C*(HHF)]
 Deg. of freedom     2
 Full point group                 C*V     NOp   4
 Rotational constants (GHZ):           0.0000000           9.4476967           9.4476967
 Standard basis: 6-311G(d,p) (5D, 7F)
    30 basis functions,    48 primitive gaussians,    31 cartesian basis functions
     6 alpha electrons        5 beta electrons
       nuclear repulsion energy         2.2125135207 Hartrees.
 NAtoms=    3 NActive=    3 NUniq=    3 SFac= 1.00D+00 NAtFMM=   60 NAOKFM=F Big=F
 Integral buffers will be    131072 words long.
 Raffenetti 2 integral format.
 Two-electron integral symmetry is turned off.
 One-electron integrals computed using PRISM.
 NBasis=    30 RedAO= T EigKep=  8.91D-02  NBF=    30
 NBsUse=    30 1.00D-06 EigRej= -1.00D+00 NBFU=    30
 ExpMin= 1.03D-01 ExpMax= 1.14D+04 ExpMxC= 1.72D+03 IAcc=3 IRadAn=         5 AccDes= 0.00D+00
 Harris functional with IExCor=  402 and IRadAn=       5 diagonalized for initial guess.
 HarFok:  IExCor=  402 AccDes= 0.00D+00 IRadAn=         5 IDoV= 1 UseB2=F ITyADJ=14
 ICtDFT=  3500011 ScaDFX=  1.000000  1.000000  1.000000  1.000000
 FoFCou: FMM=F IPFlag=           0 FMFlag=      100000 FMFlg1=           0
         NFxFlg=           0 DoJE=T BraDBF=F KetDBF=T FulRan=T
         wScrn=  0.000000 ICntrl=       500 IOpCl=  0 I1Cent=   200000004 NGrid=           0
         NMat0=    1 NMatS0=      1 NMatT0=    0 NMatD0=    1 NMtDS0=    0 NMtDT0=    0
 Symmetry not used in FoFCou.
 Initial guess <Sx>= 0.0000 <Sy>= 0.0000 <Sz>= 0.5000 <S**2>= 0.7500 S= 0.5000
 Keep R1 and R2 ints in memory in canonical form, NReq=7127049.
 Gradient too large for Newton-Raphson -- use scaled steepest descent instead.
  Beta Gap=    -0.540 HL deriv= 1.28D-15 Rot set to   3.56D-01
     Minimum is close to point  3 DX=  3.91D-02 DF= -1.10D-03 DXR=  8.91D-02 DFR=  8.49D-03 which will be used.
 Gradient too large for Newton-Raphson -- use scaled steepest descent instead.
     Accept linear search using points  4 and  5.
 Gradient too large for Newton-Raphson -- use scaled steepest descent instead.
 Gradient too large for Newton-Raphson -- use scaled steepest descent instead.
 Gradient too large for Newton-Raphson -- use scaled steepest descent instead.
 Gradient too large for Newton-Raphson -- use scaled steepest descent instead.
     Accept linear search using points  1 and  2.
 Gradient too large for Newton-Raphson -- use scaled steepest descent instead.
     Accept linear search using points  2 and  3.
 Gradient too large for Newton-Raphson -- use scaled steepest descent instead.
     Accept linear search using points  1 and  2.
 Gradient too large for Newton-Raphson -- use scaled steepest descent instead.
     Accept linear search using points  1 and  2.
 Gradient too large for Newton-Raphson -- use scaled steepest descent instead.
     Minimum is close to point  3 DX=  3.55D-02 DF= -9.47D-05 DXR=  5.58D-02 DFR=  2.76D-03 which will be used.
 Gradient too large for Newton-Raphson -- use scaled steepest descent instead.
 Gradient too large for Newton-Raphson -- use scaled steepest descent instead.
     Accept linear search using points  1 and  2.
 Gradient too large for Newton-Raphson -- use scaled steepest descent instead.
     Accept linear search using points  3 and  4.
 Gradient too large for Newton-Raphson -- use scaled steepest descent instead.
     Accept linear search using points  1 and  2.
 LinEq1:  Iter=  0 NonCon=     1 RMS=3.28D-03 Max=5.31D-02 NDo=     1
 AX will form     1 AO Fock derivatives at one time.
 LinEq1:  Iter=  1 NonCon=     1 RMS=4.36D-04 Max=2.81D-03 NDo=     1
 LinEq1:  Iter=  2 NonCon=     1 RMS=1.73D-04 Max=1.66D-03 NDo=     1
 LinEq1:  Iter=  3 NonCon=     1 RMS=8.68D-05 Max=1.10D-03 NDo=     1
 LinEq1:  Iter=  4 NonCon=     1 RMS=1.13D-05 Max=1.16D-04 NDo=     1
 LinEq1:  Iter=  5 NonCon=     1 RMS=1.03D-06 Max=7.56D-06 NDo=     1
 LinEq1:  Iter=  6 NonCon=     1 RMS=2.24D-07 Max=2.51D-06 NDo=     1
 LinEq1:  Iter=  7 NonCon=     1 RMS=2.22D-08 Max=1.30D-07 NDo=     1
 LinEq1:  Iter=  8 NonCon=     1 RMS=3.62D-09 Max=1.55D-08 NDo=     1
 LinEq1:  Iter=  9 NonCon=     0 RMS=1.07D-09 Max=1.48D-08 NDo=     1
 Linear equations converged to 1.640D-09 1.640D-08 after     9 iterations.
 LinEq1:  Iter=  0 NonCon=     1 RMS=2.31D-03 Max=3.74D-02 NDo=     1
 LinEq1:  Iter=  1 NonCon=     1 RMS=2.50D-04 Max=1.66D-03 NDo=     1
 LinEq1:  Iter=  2 NonCon=     1 RMS=1.01D-04 Max=9.56D-04 NDo=     1
 LinEq1:  Iter=  3 NonCon=     1 RMS=4.24D-05 Max=6.24D-04 NDo=     1
 LinEq1:  Iter=  4 NonCon=     1 RMS=7.69D-06 Max=8.08D-05 NDo=     1
 LinEq1:  Iter=  5 NonCon=     1 RMS=5.82D-07 Max=4.48D-06 NDo=     1
 LinEq1:  Iter=  6 NonCon=     1 RMS=9.87D-08 Max=1.16D-06 NDo=     1
 LinEq1:  Iter=  7 NonCon=     1 RMS=1.30D-08 Max=1.05D-07 NDo=     1
 LinEq1:  Iter=  8 NonCon=     1 RMS=1.97D-09 Max=1.11D-08 NDo=     1
 LinEq1:  Iter=  9 NonCon=     0 RMS=6.97D-10 Max=1.00D-08 NDo=     1
 Linear equations converged to 1.640D-09 1.640D-08 after     9 iterations.
 Incorrect curvature in search direction -- initial direction reversed.
 Gradient too large for Newton-Raphson -- use scaled steepest descent instead.
     Accept linear search using points  2 and  3.
 LinEq1:  Iter=  0 NonCon=     1 RMS=7.71D-04 Max=1.16D-02 NDo=     1
 LinEq1:  Iter=  1 NonCon=     1 RMS=4.21D-04 Max=2.74D-03 NDo=     1
 LinEq1:  Iter=  2 NonCon=     1 RMS=5.61D-05 Max=8.22D-04 NDo=     1
 LinEq1:  Iter=  3 NonCon=     1 RMS=2.15D-05 Max=1.52D-04 NDo=     1
 LinEq1:  Iter=  4 NonCon=     1 RMS=1.09D-06 Max=7.96D-06 NDo=     1
 LinEq1:  Iter=  5 NonCon=     1 RMS=9.87D-08 Max=7.78D-07 NDo=     1
 LinEq1:  Iter=  6 NonCon=     1 RMS=1.52D-08 Max=7.09D-08 NDo=     1
 LinEq1:  Iter=  7 NonCon=     1 RMS=2.09D-09 Max=1.78D-08 NDo=     1
 LinEq1:  Iter=  8 NonCon=     0 RMS=5.66D-10 Max=8.36D-09 NDo=     1
 Linear equations converged to 1.640D-09 1.640D-08 after     8 iterations.
 LinEq1:  Iter=  0 NonCon=     1 RMS=6.24D-04 Max=9.43D-03 NDo=     1
 LinEq1:  Iter=  1 NonCon=     1 RMS=3.28D-04 Max=2.15D-03 NDo=     1
 LinEq1:  Iter=  2 NonCon=     1 RMS=4.82D-05 Max=7.19D-04 NDo=     1
 LinEq1:  Iter=  3 NonCon=     1 RMS=1.71D-05 Max=1.10D-04 NDo=     1
 LinEq1:  Iter=  4 NonCon=     1 RMS=8.64D-07 Max=6.72D-06 NDo=     1
 LinEq1:  Iter=  5 NonCon=     1 RMS=8.56D-08 Max=8.28D-07 NDo=     1
 LinEq1:  Iter=  6 NonCon=     1 RMS=1.38D-08 Max=7.86D-08 NDo=     1
 LinEq1:  Iter=  7 NonCon=     1 RMS=2.03D-09 Max=2.00D-08 NDo=     1
 LinEq1:  Iter=  8 NonCon=     0 RMS=7.86D-10 Max=1.05D-08 NDo=     1
 Linear equations converged to 1.640D-09 1.640D-08 after     8 iterations.
 Incorrect curvature in search direction -- initial direction reversed.
 LinEq1:  Iter=  0 NonCon=     1 RMS=8.64D-04 Max=1.31D-02 NDo=     1
 LinEq1:  Iter=  1 NonCon=     1 RMS=4.40D-04 Max=2.89D-03 NDo=     1
 LinEq1:  Iter=  2 NonCon=     1 RMS=5.99D-05 Max=9.18D-04 NDo=     1
 LinEq1:  Iter=  3 NonCon=     1 RMS=1.83D-05 Max=1.23D-04 NDo=     1
 LinEq1:  Iter=  4 NonCon=     1 RMS=8.70D-07 Max=9.41D-06 NDo=     1
 LinEq1:  Iter=  5 NonCon=     1 RMS=8.46D-08 Max=5.21D-07 NDo=     1
 LinEq1:  Iter=  6 NonCon=     1 RMS=1.81D-08 Max=1.78D-07 NDo=     1
 LinEq1:  Iter=  7 NonCon=     1 RMS=2.31D-09 Max=1.47D-08 NDo=     1
 LinEq1:  Iter=  8 NonCon=     0 RMS=5.72D-10 Max=3.32D-09 NDo=     1
 Linear equations converged to 1.640D-09 1.640D-08 after     8 iterations.
 Incorrect curvature in search direction -- initial direction reversed.
 LinEq1:  Iter=  0 NonCon=     1 RMS=1.05D-03 Max=1.60D-02 NDo=     1
 LinEq1:  Iter=  1 NonCon=     1 RMS=5.20D-04 Max=3.43D-03 NDo=     1
 LinEq1:  Iter=  2 NonCon=     1 RMS=7.30D-05 Max=1.09D-03 NDo=     1
 LinEq1:  Iter=  3 NonCon=     1 RMS=2.56D-05 Max=2.32D-04 NDo=     1
 LinEq1:  Iter=  4 NonCon=     1 RMS=1.61D-06 Max=1.36D-05 NDo=     1
 LinEq1:  Iter=  5 NonCon=     1 RMS=1.51D-07 Max=1.18D-06 NDo=     1
 LinEq1:  Iter=  6 NonCon=     1 RMS=4.10D-08 Max=4.24D-07 NDo=     1
 LinEq1:  Iter=  7 NonCon=     1 RMS=4.73D-09 Max=3.19D-08 NDo=     1
 LinEq1:  Iter=  8 NonCon=     0 RMS=7.90D-10 Max=8.95D-09 NDo=     1
 Linear equations converged to 1.640D-09 1.640D-08 after     8 iterations.
 Incorrect curvature in search direction -- initial direction reversed.
 Gradient too large for Newton-Raphson -- use scaled steepest descent instead.
     Accept linear search using points  1 and  2.
 LinEq1:  Iter=  0 NonCon=     1 RMS=1.17D-03 Max=1.89D-02 NDo=     1
 LinEq1:  Iter=  1 NonCon=     1 RMS=2.06D-04 Max=1.35D-03 NDo=     1
 LinEq1:  Iter=  2 NonCon=     1 RMS=8.57D-05 Max=1.27D-03 NDo=     1
 LinEq1:  Iter=  3 NonCon=     1 RMS=2.38D-05 Max=2.63D-04 NDo=     1
 LinEq1:  Iter=  4 NonCon=     1 RMS=1.91D-06 Max=1.90D-05 NDo=     1
 LinEq1:  Iter=  5 NonCon=     1 RMS=1.46D-07 Max=1.39D-06 NDo=     1
 LinEq1:  Iter=  6 NonCon=     1 RMS=3.91D-08 Max=3.58D-07 NDo=     1
 LinEq1:  Iter=  7 NonCon=     1 RMS=4.95D-09 Max=3.33D-08 NDo=     1
 LinEq1:  Iter=  8 NonCon=     0 RMS=5.85D-10 Max=7.72D-09 NDo=     1
 Linear equations converged to 1.640D-09 1.640D-08 after     8 iterations.
 LinEq1:  Iter=  0 NonCon=     1 RMS=9.34D-04 Max=1.51D-02 NDo=     1
 LinEq1:  Iter=  1 NonCon=     1 RMS=1.59D-04 Max=1.12D-03 NDo=     1
 LinEq1:  Iter=  2 NonCon=     1 RMS=8.47D-05 Max=1.21D-03 NDo=     1
 LinEq1:  Iter=  3 NonCon=     1 RMS=2.55D-05 Max=2.14D-04 NDo=     1
 LinEq1:  Iter=  4 NonCon=     1 RMS=2.80D-06 Max=2.65D-05 NDo=     1
 LinEq1:  Iter=  5 NonCon=     1 RMS=1.71D-07 Max=1.11D-06 NDo=     1
 LinEq1:  Iter=  6 NonCon=     1 RMS=3.26D-08 Max=3.65D-07 NDo=     1
 LinEq1:  Iter=  7 NonCon=     1 RMS=5.10D-09 Max=4.39D-08 NDo=     1
 LinEq1:  Iter=  8 NonCon=     0 RMS=6.21D-10 Max=7.20D-09 NDo=     1
 Linear equations converged to 1.640D-09 1.640D-08 after     8 iterations.
     Accept linear search using points  1 and  2.
 LinEq1:  Iter=  0 NonCon=     1 RMS=1.99D-04 Max=1.95D-03 NDo=     1
 LinEq1:  Iter=  1 NonCon=     1 RMS=3.56D-05 Max=5.54D-04 NDo=     1
 LinEq1:  Iter=  2 NonCon=     1 RMS=1.01D-05 Max=9.12D-05 NDo=     1
 LinEq1:  Iter=  3 NonCon=     1 RMS=5.73D-06 Max=5.04D-05 NDo=     1
 LinEq1:  Iter=  4 NonCon=     1 RMS=1.00D-06 Max=9.68D-06 NDo=     1
 LinEq1:  Iter=  5 NonCon=     1 RMS=1.25D-07 Max=9.74D-07 NDo=     1
 LinEq1:  Iter=  6 NonCon=     1 RMS=2.14D-08 Max=2.42D-07 NDo=     1
 LinEq1:  Iter=  7 NonCon=     1 RMS=4.96D-09 Max=2.97D-08 NDo=     1
 LinEq1:  Iter=  8 NonCon=     0 RMS=5.01D-10 Max=4.75D-09 NDo=     1
 Linear equations converged to 1.640D-09 1.640D-08 after     8 iterations.
 LinEq1:  Iter=  0 NonCon=     1 RMS=1.42D-04 Max=1.80D-03 NDo=     1
 LinEq1:  Iter=  1 NonCon=     1 RMS=2.34D-05 Max=1.69D-04 NDo=     1
 LinEq1:  Iter=  2 NonCon=     1 RMS=2.03D-05 Max=1.48D-04 NDo=     1
 LinEq1:  Iter=  3 NonCon=     1 RMS=1.48D-05 Max=1.75D-04 NDo=     1
 LinEq1:  Iter=  4 NonCon=     1 RMS=9.38D-07 Max=8.18D-06 NDo=     1
 LinEq1:  Iter=  5 NonCon=     1 RMS=5.08D-08 Max=4.93D-07 NDo=     1
 LinEq1:  Iter=  6 NonCon=     1 RMS=3.98D-09 Max=2.84D-08 NDo=     1
 LinEq1:  Iter=  7 NonCon=     0 RMS=6.86D-10 Max=8.17D-09 NDo=     1
 Linear equations converged to 1.640D-09 1.640D-08 after     7 iterations.
 LinEq1:  Iter=  0 NonCon=     1 RMS=4.31D-05 Max=2.99D-04 NDo=     1
 LinEq1:  Iter=  1 NonCon=     1 RMS=5.29D-06 Max=6.73D-05 NDo=     1
 LinEq1:  Iter=  2 NonCon=     1 RMS=4.00D-06 Max=3.26D-05 NDo=     1
 LinEq1:  Iter=  3 NonCon=     1 RMS=2.36D-06 Max=1.69D-05 NDo=     1
 LinEq1:  Iter=  4 NonCon=     1 RMS=2.12D-07 Max=1.75D-06 NDo=     1
 LinEq1:  Iter=  5 NonCon=     1 RMS=4.60D-08 Max=5.24D-07 NDo=     1
 LinEq1:  Iter=  6 NonCon=     1 RMS=7.90D-09 Max=6.63D-08 NDo=     1
 LinEq1:  Iter=  7 NonCon=     0 RMS=7.94D-10 Max=7.83D-09 NDo=     1
 Linear equations converged to 1.640D-09 1.640D-08 after     7 iterations.
 LinEq1:  Iter=  0 NonCon=     1 RMS=7.38D-06 Max=7.01D-05 NDo=     1
 LinEq1:  Iter=  1 NonCon=     1 RMS=7.03D-07 Max=7.14D-06 NDo=     1
 LinEq1:  Iter=  2 NonCon=     1 RMS=3.69D-07 Max=3.53D-06 NDo=     1
 LinEq1:  Iter=  3 NonCon=     1 RMS=7.77D-08 Max=7.01D-07 NDo=     1
 LinEq1:  Iter=  4 NonCon=     1 RMS=2.34D-08 Max=1.94D-07 NDo=     1
 LinEq1:  Iter=  5 NonCon=     1 RMS=9.13D-09 Max=1.02D-07 NDo=     1
 LinEq1:  Iter=  6 NonCon=     0 RMS=1.51D-09 Max=1.24D-08 NDo=     1
 Linear equations converged to 1.640D-09 1.640D-08 after     6 iterations.
     Accept linear search using points  1 and  2.
     Minimum is close to point  2 DX= -7.42D-02 DF= -3.07D-10 DXR=  8.02D-02 DFR=  6.64D-03 which will be used.
 LinEq1:  Iter=  0 NonCon=     1 RMS=7.76D-07 Max=6.15D-06 NDo=     1
 LinEq1:  Iter=  1 NonCon=     1 RMS=2.65D-07 Max=3.05D-06 NDo=     1
 LinEq1:  Iter=  2 NonCon=     1 RMS=1.47D-07 Max=1.99D-06 NDo=     1
 LinEq1:  Iter=  3 NonCon=     1 RMS=8.31D-08 Max=7.92D-07 NDo=     1
 LinEq1:  Iter=  4 NonCon=     1 RMS=2.22D-08 Max=1.59D-07 NDo=     1
 LinEq1:  Iter=  5 NonCon=     1 RMS=2.79D-09 Max=2.39D-08 NDo=     1
 LinEq1:  Iter=  6 NonCon=     0 RMS=2.79D-10 Max=2.00D-09 NDo=     1
 Linear equations converged to 4.558D-10 4.558D-09 after     6 iterations.
 LinEq1:  Iter=  0 NonCon=     1 RMS=8.32D-08 Max=5.98D-07 NDo=     1
 LinEq1:  Iter=  1 NonCon=     1 RMS=5.57D-08 Max=7.73D-07 NDo=     1
 LinEq1:  Iter=  2 NonCon=     1 RMS=2.62D-08 Max=3.51D-07 NDo=     1
 LinEq1:  Iter=  3 NonCon=     1 RMS=1.43D-08 Max=1.14D-07 NDo=     1
 LinEq1:  Iter=  4 NonCon=     1 RMS=3.22D-09 Max=1.96D-08 NDo=     1
 LinEq1:  Iter=  5 NonCon=     1 RMS=2.71D-10 Max=2.20D-09 NDo=     1
 LinEq1:  Iter=  6 NonCon=     1 RMS=4.53D-11 Max=4.86D-10 NDo=     1
 LinEq1:  Iter=  7 NonCon=     0 RMS=9.50D-12 Max=7.08D-11 NDo=     1
 Linear equations converged to 4.578D-11 4.578D-10 after     7 iterations.
 LinEq1:  Iter=  0 NonCon=     1 RMS=3.89D-09 Max=2.89D-08 NDo=     1
 LinEq1:  Iter=  1 NonCon=     1 RMS=1.33D-09 Max=1.02D-08 NDo=     1
 LinEq1:  Iter=  2 NonCon=     1 RMS=9.54D-10 Max=9.54D-09 NDo=     1
 LinEq1:  Iter=  3 NonCon=     1 RMS=5.73D-10 Max=6.67D-09 NDo=     1
 LinEq1:  Iter=  4 NonCon=     1 RMS=1.82D-10 Max=1.39D-09 NDo=     1
 LinEq1:  Iter=  5 NonCon=     1 RMS=1.95D-11 Max=1.70D-10 NDo=     1
 LinEq1:  Iter=  6 NonCon=     1 RMS=3.50D-12 Max=2.37D-11 NDo=     1
 LinEq1:  Iter=  7 NonCon=     0 RMS=4.63D-13 Max=2.13D-12 NDo=     1
 Linear equations converged to 1.744D-12 1.744D-11 after     7 iterations.
 SCF Done:  E(UB3LYP) =  -100.759440005     a.u. after   32 cycles
            Convg  =    0.7088D-07                   209 Fock formations.
              S**2 =  1.7295                  -V/T =  2.0015
 <Sx>= 0.0000 <Sy>= 0.0000 <Sz>= 0.5000 <S**2>= 1.7295 S= 0.9069
 <L.S>=  0.00000000000    
 Annihilation of the first spin contaminant:
 S**2 before annihilation     1.7295,   after     0.7530
 DoSCS=F DFT=T ScalE2(SS,OS)=  1.000000  1.000000
 Range of M.O.s used for correlation:     1    30
 NBasis=    30 NAE=     6 NBE=     5 NFC=     0 NFV=     0
 NROrb=     30 NOA=     6 NOB=     5 NVA=    24 NVB=    25

 **** Warning!!: The smallest beta delta epsilon is  0.72650514D-01

 Symmetrizing basis deriv contribution to polar:
 IMax=3 JMax=2 DiffMx= 0.00D+00
 G2DrvN: will do     4 centers at a time, making    1 passes.
 Calling FoFCou, ICntrl=  3107 FMM=F I1Cent=   0 AccDes= 0.00D+00.
 End of G2Drv F.D. properties file   721 does not exist.
 End of G2Drv F.D. properties file   722 does not exist.
 End of G2Drv F.D. properties file   788 does not exist.
          IDoAtm=111
          Differentiating once with respect to electric field.
                with respect to dipole field.
          Differentiating once with respect to nuclear coordinates.
 Keep R1 and R2 ints in memory in canonical form, NReq=7101526.
          There are    12 degrees of freedom in the 1st order CPHF.  IDoFFX=6 NUNeed=     3.
      9 vectors produced by pass  0 Test12= 2.24D-15 8.33D-09 XBig12= 9.82D+01 9.67D+00.
 AX will form     9 AO Fock derivatives at one time.
      9 vectors produced by pass  1 Test12= 2.24D-15 8.33D-09 XBig12= 6.21D-01 2.91D-01.
      9 vectors produced by pass  2 Test12= 2.24D-15 8.33D-09 XBig12= 9.24D-02 2.11D-01.
      7 vectors produced by pass  3 Test12= 2.24D-15 8.33D-09 XBig12= 4.38D-04 9.88D-03.
      6 vectors produced by pass  4 Test12= 2.24D-15 8.33D-09 XBig12= 2.91D-06 7.41D-04.
      3 vectors produced by pass  5 Test12= 2.24D-15 8.33D-09 XBig12= 9.03D-09 3.83D-05.
      1 vectors produced by pass  6 Test12= 2.24D-15 8.33D-09 XBig12= 3.82D-11 3.15D-06.
      1 vectors produced by pass  7 Test12= 2.24D-15 8.33D-09 XBig12= 6.35D-14 8.17D-08.
 InvSVY:  IOpt=1 It=  1 EMax= 3.29D-15
 Solved reduced A of dimension    45 with     9 vectors.
 Isotropic polarizability for W=    0.000000        9.20 Bohr**3.
 End of Minotr F.D. properties file   721 does not exist.
 End of Minotr F.D. properties file   722 does not exist.
 End of Minotr F.D. properties file   788 does not exist.

 **********************************************************************

            Population analysis using the SCF Density.

 **********************************************************************

 Alpha  occ. eigenvalues --  -24.75473  -1.21429  -0.54596  -0.45839  -0.45839
 Alpha  occ. eigenvalues --   -0.32379
 Alpha virt. eigenvalues --   -0.07525   0.24658   0.36558   0.87456   0.91427
 Alpha virt. eigenvalues --    0.91427   1.01692   1.25139   1.25139   1.25548
 Alpha virt. eigenvalues --    1.44460   1.44619   1.44619   2.15463   2.40231
 Alpha virt. eigenvalues --    3.65654   3.67844   3.67844   3.74814   3.74815
 Alpha virt. eigenvalues --    5.86865   5.94225   5.94225  66.47480
  Beta  occ. eigenvalues --  -24.72354  -1.12465  -0.42713  -0.42713  -0.32794
  Beta virt. eigenvalues --   -0.25529  -0.07034   0.24437   0.37355   0.92917
  Beta virt. eigenvalues --    0.92917   0.96632   1.05724   1.24664   1.24664
  Beta virt. eigenvalues --    1.25044   1.45211   1.45406   1.45406   2.15688
  Beta virt. eigenvalues --    2.40469   3.76427   3.76427   3.77551   3.77551
  Beta virt. eigenvalues --    3.79552   5.96867   5.96867   6.00860  66.50585
          Condensed to atoms (all electrons):
               1          2          3
     1  H    0.985602   0.003364   0.001454
     2  H    0.003364   0.996277  -0.000000
     3  F    0.001454  -0.000000   9.008484
          Atomic-Atomic Spin Densities.
               1          2          3
     1  H   -0.984066   0.000227  -0.000684
     2  H    0.000227   0.995270  -0.000000
     3  F   -0.000684  -0.000000   0.989711
 Mulliken charges and spin densities:
               1          2
     1  H    0.009580  -0.984523
     2  H    0.000359   0.995497
     3  F   -0.009938   0.989027
 Sum of Mulliken charges =  -0.00000   1.00000
 Mulliken charges and spin densities with hydrogens summed into heavy atoms:
               1          2
     3  F   -0.000000   1.000000
 APT charges:
               1
     1  H   -0.026057
     2  H    0.000058
     3  F    0.025999
 Sum of APT charges =  -0.00000
 APT charges with hydrogens summed into heavy atoms:
               1
     3  F   -0.000000
 Electronic spatial extent (au):  <R**2>=            458.3664
 Charge=             -0.0000 electrons
 Dipole moment (field-independent basis, Debye):
    X=             -0.1870    Y=             -0.0000    Z=             -0.0000  Tot=              0.1870
 Quadrupole moment (field-independent basis, Debye-Ang):
   XX=             -7.2855   YY=             -7.6284   ZZ=             -7.6284
   XY=             -0.0000   XZ=             -0.0000   YZ=              0.0000
 Traceless Quadrupole moment (field-independent basis, Debye-Ang):
   XX=              0.2286   YY=             -0.1143   ZZ=             -0.1143
   XY=             -0.0000   XZ=             -0.0000   YZ=              0.0000
 Octapole moment (field-independent basis, Debye-Ang**2):
  XXX=            -31.6131  YYY=             -0.0000  ZZZ=             -0.0000  XYY=            -12.7407
  XXY=             -0.0000  XXZ=             -0.0000  XZZ=            -12.7407  YZZ=             -0.0000
  YYZ=             -0.0000  XYZ=              0.0000
 Hexadecapole moment (field-independent basis, Debye-Ang**3):
 XXXX=           -398.4946 YYYY=             -6.3590 ZZZZ=             -6.3590 XXXY=             -0.0001
 XXXZ=             -0.0001 YYYX=             -0.0000 YYYZ=              0.0000 ZZZX=             -0.0000
 ZZZY=              0.0000 XXYY=            -77.3315 XXZZ=            -77.3315 YYZZ=             -2.1197
 XXYZ=              0.0000 YYXZ=             -0.0000 ZZXY=             -0.0000
 N-N= 2.212513520657D+00 E-N=-2.453835134673D+02  KE= 1.006128190353D+02
  Exact polarizability:      23.530      -0.000       2.035      -0.000      -0.000       2.035
 Approx polarizability:      18.147      -0.000       1.933      -0.000      -0.000       1.933
                          Isotropic Fermi Contact Couplings
        Atom                 a.u.       MegaHertz       Gauss      10(-4) cm-1
     1  H(1)              -0.29317   -1310.41285    -467.58789    -437.10668
     2  H(1)               0.29575    1321.96596     471.71033     440.96038
     3  F(19)              0.03016     126.90785      45.28388      42.33190
 --------------------------------------------------------
       Center         ----  Spin Dipole Couplings  ----
                      3XX-RR        3YY-RR        3ZZ-RR
 --------------------------------------------------------
     1   Atom        0.016018     -0.008009     -0.008009
     2   Atom       -0.007851      0.003926      0.003926
     3   Atom        6.224051     -3.112025     -3.112025
 --------------------------------------------------------
                        XY            XZ            YZ
 --------------------------------------------------------
     1   Atom        0.000000      0.000000      0.000000
     2   Atom        0.000000      0.000000      0.000000
     3   Atom       -0.000028     -0.000025     -0.000000
 --------------------------------------------------------


 ---------------------------------------------------------------------------------
              Anisotropic Spin Dipole Couplings in Principal Axis System
 ---------------------------------------------------------------------------------

       Atom             a.u.   MegaHertz   Gauss  10(-4) cm-1        Axes

              Baa    -0.0080    -4.273    -1.525    -1.425  0.0000 -0.6672  0.7448
     1 H(1)   Bbb    -0.0080    -4.273    -1.525    -1.425 -0.0000  0.7448  0.6672
              Bcc     0.0160     8.547     3.050     2.851  1.0000  0.0000  0.0000
 
              Baa    -0.0079    -4.189    -1.495    -1.397  1.0000 -0.0000 -0.0000
     2 H(1)   Bbb     0.0039     2.095     0.747     0.699 -0.0000 -0.6674  0.7447
              Bcc     0.0039     2.095     0.747     0.699  0.0000  0.7447  0.6674
 
              Baa    -3.1120 -1562.939  -557.695  -521.340  0.0000  0.7447  0.6674
     3 F(19)  Bbb    -3.1120 -1562.939  -557.695  -521.340 -0.0000 -0.6674  0.7447
              Bcc     6.2241  3125.878  1115.391  1042.681  1.0000 -0.0000 -0.0000
 

 ---------------------------------------------------------------------------------

 Calling FoFJK, ICntrl=    100127 FMM=F ISym2X=0 I1Cent= 0 IOpClX= 1 NMat=1 NMatS=1 NMatT=0.
 Full mass-weighted force constant matrix:
 Low frequencies --- -293.7348 -118.4599   -0.0022   -0.0020   -0.0020   31.7467
 Low frequencies ---   31.7468   97.6693   97.6693
 ******    2 imaginary frequencies (negative Signs) ****** 
 Diagonal vibrational polarizability:
        7.3326770       0.2199874       0.2199874
 Harmonic frequencies (cm**-1), IR intensities (KM/Mole), Raman scattering
 activities (A**4/AMU), depolarization ratios for plane and unpolarized
 incident light, reduced masses (AMU), force constants (mDyne/A),
 and normal coordinates:
                      1                      2                      3
                      A                      A                      A
 Frequencies --   -293.7348              -118.4599                96.1711
 Red. masses --      1.0143                 1.1008                 1.0167
 Frc consts  --      0.0516                 0.0091                 0.0055
 IR Inten    --      7.1471                 2.6612                 0.0756
  Atom  AN      X      Y      Z        X      Y      Z        X      Y      Z
     1   1     0.86  -0.00  -0.00     0.48  -0.00  -0.00     0.00  -0.56   0.69
     2   1    -0.51   0.00   0.00     0.87   0.00   0.00     0.00   0.29  -0.36
     3   9    -0.02   0.00   0.00    -0.07   0.00   0.00    -0.00   0.01  -0.02
                      4
                      A
 Frequencies --     96.1711
 Red. masses --      1.0167
 Frc consts  --      0.0055
 IR Inten    --      0.0756
  Atom  AN      X      Y      Z
     1   1     0.00   0.69   0.56
     2   1     0.00  -0.36  -0.29
     3   9    -0.00  -0.02  -0.01

 -------------------
 - Thermochemistry -
 -------------------
 Temperature   298.150 Kelvin.  Pressure   1.00000 Atm.
 Atom     1 has atomic number  1 and mass   1.00783
 Atom     2 has atomic number  1 and mass   1.00783
 Atom     3 has atomic number  9 and mass  18.99840
 Molecular mass:    21.01405 amu.
 Principal axes and moments of inertia in atomic units:
                           1         2         3
     Eigenvalues --     0.00000 191.02446 191.02446
           X            1.00000  -0.00000   0.00000
           Y            0.00000   1.00000   0.00000
           Z            0.00000   0.00000   1.00000
 This molecule is a prolate symmetric top.
 Rotational symmetry number  1.
 Rotational temperature (Kelvin)      0.45342
 Rotational constant (GHZ):           9.447697
    2 imaginary frequencies ignored.
 Zero-point vibrational energy       1150.5 (Joules/Mol)
                                    0.27497 (Kcal/Mol)
 Warning -- explicit consideration of   2 degrees of freedom as
           vibrations may cause significant error
 Vibrational temperatures:    138.37   138.37
          (Kelvin)
 
 Zero-point correction=                           0.000438 (Hartree/Particle)
 Thermal correction to Energy=                    0.004283
 Thermal correction to Enthalpy=                  0.005227
 Thermal correction to Gibbs Free Energy=        -0.022515
 Sum of electronic and zero-point Energies=           -100.759002
 Sum of electronic and thermal Energies=              -100.755157
 Sum of electronic and thermal Enthalpies=            -100.754213
 Sum of electronic and thermal Free Energies=         -100.781955
 
                     E (Thermal)             CV                S
                      KCal/Mol        Cal/Mol-Kelvin    Cal/Mol-Kelvin
 Total                    2.687              8.872             58.388
 Electronic               0.000              0.000              1.377
 Translational            0.889              2.981             35.068
 Rotational               0.592              1.987             14.881
 Vibrational              1.206              3.904              7.061
 Vibration     1          0.603              1.952              3.530
 Vibration     2          0.603              1.952              3.530
                       Q            Log10(Q)             Ln(Q)
 Total Bot       0.227090D+11         10.356197         23.846025
 Total V=0       0.361201D+11         10.557749         24.310116
 Vib (Bot)       0.456050D+01          0.659012          1.517432
 Vib (Bot)    1  0.213553D+01          0.329506          0.758716
 Vib (Bot)    2  0.213553D+01          0.329506          0.758716
 Vib (V=0)       0.725378D+01          0.860565          1.981523
 Vib (V=0)    1  0.269329D+01          0.430282          0.990762
 Vib (V=0)    2  0.269328D+01          0.430282          0.990762
 Electronic      0.200000D+01          0.301030          0.693147
 Translational   0.378633D+07          6.578219         15.146908
 Rotational      0.657561D+03          2.817936          6.488538
 -------------------------------------------------------------------
 Center     Atomic                   Forces (Hartrees/Bohr)
 Number     Number              X              Y              Z
 -------------------------------------------------------------------
      1        1          -0.000100024    0.000000000    0.000000000
      2        1           0.000963403    0.000000000    0.000000000
      3        9          -0.000863379   -0.000000000   -0.000000000
 -------------------------------------------------------------------
 Cartesian Forces:  Max     0.000963403 RMS     0.000432508

 GradGradGradGradGradGradGradGradGradGradGradGradGradGradGradGradGradGrad
 Berny optimization.
 Search for a local minimum.
 Step number   1 out of a maximum of    2
 All quantities printed in internal units (Hartrees-Bohrs-Radians)
 Second derivative matrix not updated -- analytic derivatives used.
 The second derivative matrix:
                          X1        Y1        Z1        X2        Y2
           X1          -0.00255
           Y1           0.00000   0.00024
           Z1           0.00000   0.00000   0.00024
           X2           0.00122  -0.00000   0.00000  -0.00121
           Y2           0.00000  -0.00016   0.00000  -0.00000   0.00016
           Z2           0.00000   0.00000  -0.00016  -0.00000   0.00000
           X3           0.00133  -0.00000  -0.00000  -0.00001  -0.00000
           Y3          -0.00000  -0.00008  -0.00000   0.00000   0.00000
           Z3          -0.00000  -0.00000  -0.00008  -0.00000  -0.00000
                          Z2        X3        Y3        Z3
           Z2           0.00016
           X3          -0.00000  -0.00132
           Y3          -0.00000   0.00000   0.00008
           Z3           0.00000   0.00000   0.00000   0.00008
 ITU=  0
     Eigenvalues ---   -0.00359  -0.00101   0.00037   0.00037
 Eigenvalue     1 is  -3.59D-03 should be greater than     0.000000 Eigenvector:
                          X1        X2        X3        Y1        Z1
   1                    0.91500  -0.35823  -0.18559  -0.00000  -0.00000
                          Y2        Z2        Y3        Z3
   1                    0.00000   0.00000   0.00000   0.00000
 Eigenvalue     2 is  -1.01D-03 should be greater than     0.000000 Eigenvector:
                          X2        X3        X1        Y1        Z1
   1                    0.88361  -0.38389   0.26808  -0.00000  -0.00000
                          Y2        Z2        Y3        Z3
   1                    0.00000   0.00000   0.00000   0.00000
 Quadratic step=1.148D+00 exceeds max=3.000D-01 adjusted using Lamda=-2.881D-03.
 Angle between NR and scaled steps=   4.34 degrees.
 Angle between quadratic step and forces=  24.20 degrees.
 Linear search not attempted -- first point.
 B after Tr=    -0.070760   -0.000000    0.000000
         Rot=    0.738322    0.674448    0.000000    0.000000 Ang=  84.82 deg.
 Variable       Old X    -DE/DX   Delta X   Delta X   Delta X     New X
                                 (Linear)    (Quad)   (Total)
    X1        0.00000  -0.00010   0.00000   0.04054  -0.03022  -0.03022
    Y1        0.00000   0.00000   0.00000   0.00000   0.00000   0.00000
    Z1        0.00000   0.00000   0.00000   0.00000  -0.00000  -0.00000
    X2       -6.04712   0.00096   0.00000   0.27788   0.20712  -5.84000
    Y2        0.00000   0.00000   0.00000  -0.00000  -0.00000  -0.00000
    Z2        0.00000   0.00000   0.00000  -0.00000   0.00000   0.00000
    X3        6.70853  -0.00086   0.00000  -0.10614  -0.17690   6.53163
    Y3        0.00000  -0.00000   0.00000  -0.00000  -0.00000  -0.00000
    Z3        0.00000  -0.00000   0.00000  -0.00000   0.00000   0.00000
         Item               Value     Threshold  Converged?
 Maximum Force            0.000963     0.000450     NO 
 RMS     Force            0.000433     0.000300     NO 
 Maximum Displacement     0.207119     0.001800     NO 
 RMS     Displacement     0.091351     0.001200     NO 
 Predicted change in Energy=-4.031339D-04
 GradGradGradGradGradGradGradGradGradGradGradGradGradGradGradGradGradGrad


 ----------------------------------------------------------------------

 Electric dipole moment (input orientation):
 (Debye = 10**-18 statcoulomb cm , SI units = C m)
                  (au)            (Debye)         (10**-30 SI)
   Tot        0.735857D-01      0.187036D+00      0.623886D+00
   x         -0.735857D-01     -0.187036D+00     -0.623886D+00
   y          0.000000D+00      0.000000D+00      0.000000D+00
   z          0.000000D+00      0.000000D+00      0.000000D+00

 Dipole polarizability, Alpha (input orientation).
 (esu units = cm**3 , SI units = C**2 m**2 J**-1)
 Alpha(0;0):
               (au)            (10**-24 esu)      (10**-40 SI)
   iso        0.919985D+01      0.136328D+01      0.151685D+01
   aniso      0.214947D+02      0.318518D+01      0.354399D+01
   xx         0.235296D+02      0.348673D+01      0.387951D+01
   yx         0.000000D+00      0.000000D+00      0.000000D+00
   yy         0.203496D+01      0.301550D+00      0.335519D+00
   zx         0.000000D+00      0.000000D+00      0.000000D+00
   zy         0.000000D+00      0.000000D+00      0.000000D+00
   zz         0.203496D+01      0.301550D+00      0.335519D+00

 ----------------------------------------------------------------------

 Dipole orientation:
     1          0.00000000          0.00000000         -0.00000000
     1          0.00000043          0.00000048          6.04712360
     9         -0.00000048         -0.00000053         -6.70852774

 Electric dipole moment (dipole orientation):
 (Debye = 10**-18 statcoulomb cm , SI units = C m)
                  (au)            (Debye)         (10**-30 SI)
   Tot        0.735857D-01      0.187036D+00      0.623886D+00
   x          0.000000D+00      0.000000D+00      0.000000D+00
   y          0.000000D+00      0.000000D+00      0.000000D+00
   z          0.735857D-01      0.187036D+00      0.623886D+00

 Dipole polarizability, Alpha (dipole orientation).
 (esu units = cm**3 , SI units = C**2 m**2 J**-1)
 Alpha(0;0):
               (au)            (10**-24 esu)      (10**-40 SI)
   iso        0.919985D+01      0.136328D+01      0.151685D+01
   aniso      0.214947D+02      0.318518D+01      0.354399D+01
   xx         0.203496D+01      0.301550D+00      0.335519D+00
   yx         0.000000D+00      0.000000D+00      0.000000D+00
   yy         0.203496D+01      0.301550D+00      0.335519D+00
   zx         0.000000D+00      0.000000D+00      0.000000D+00
   zy         0.000000D+00      0.000000D+00      0.000000D+00
   zz         0.235296D+02      0.348673D+01      0.387951D+01

 ----------------------------------------------------------------------
 Unable to Open any file for archive entry.
 1\1\GINC-DESKTOP-B3RIHJD\Freq\UB3LYP\6-311G(d,p)\F1H2(2)\GARYX\22-Aug-
 2025\0\\# sp b3lyp/6-311g** Force nosymm scf=(qc)\\Title Card Required
 \\0,2\H,0.,0.,0.\H,-3.2,0.,0.\F,3.55,0.,0.\\Version=ES64L-G16RevC.01\H
 F=-100.75944\S2=1.729484\S2-1=0.\S2A=0.752959\RMSD=4.322e-09\RMSF=4.32
 5e-04\Thermal=0.0042826\ETot=-100.7551574\HTot=-100.7542132\GTot=-100.
 7819551\Dipole=-0.0735857,0.,0.\DipoleDeriv=-0.0980985,0.,0.,0.0000001
 ,0.0099638,0.,0.0000001,0.,0.0099638,-0.0005408,0.,0.,0.,0.0003572,0.,
 0.,0.,0.0003572,0.0986393,0.,0.,-0.0000001,-0.0103211,0.,-0.0000001,0.
 ,-0.0103211\Polar=23.5296331,-0.0000034,2.0349585,-0.0000029,0.,2.0349
 585\Quadrupole=0.1699554,-0.0849777,-0.0849777,-0.0000019,-0.0000017,0
 .\PG=C*V [C*(H1H1F1)]\NImag=2\\-0.00254751,0.,0.00023887,0.,0.,0.00023
 887,0.00121917,0.,0.,-0.00120849,0.,-0.00015931,0.,0.,0.00015918,0.,0.
 ,-0.00015931,0.,0.,0.00015918,0.00132833,0.,0.,-0.00001068,0.,0.,-0.00
 131765,0.,-0.00007956,0.,0.,0.00000013,0.,0.,0.00007943,0.,0.,-0.00007
 956,0.,0.,0.00000013,0.,0.,0.00007943\\0.00010002,0.,0.,-0.00096340,0.
 ,0.,0.00086338,0.,0.\\\@
 The archive entry for this job was punched.


 SEE YOU NOW,
 YOUR BAIT OF FALSEHOOD TAKES THIS CARP OF TRUTH.
 AND THUS DO WE OF WISDOM AND OF REACH...
 BY INDIRECTIONS FIND DIRECTIONS OUT.    -- HAMLET, II, 1
 Job cpu time:       0 days  0 hours  0 minutes 35.1 seconds.
 Elapsed time:       0 days  0 hours  0 minutes  4.8 seconds.
 File lengths (MBytes):  RWF=      6 Int=      0 D2E=      0 Chk=      1 Scr=      1
 Normal termination of Gaussian 16 at Fri Aug 22 22:40:57 2025.
