 Entering Gaussian System, Link 0=g16
 Initial command:
 /home/garyx/gaussian/g16/l1.exe "/tmp/gaussian_scratch/Gau-915620.inp" -scrdir="/tmp/gaussian_scratch/"
 Entering Link 1 = /home/garyx/gaussian/g16/l1.exe PID=    915622.
  
 Copyright (c) 1988-2019, Gaussian, Inc.  All Rights Reserved.
  
 This is part of the Gaussian(R) 16 program.  It is based on
 the Gaussian(R) 09 system (copyright 2009, Gaussian, Inc.),
 the Gaussian(R) 03 system (copyright 2003, Gaussian, Inc.),
 the Gaussian(R) 98 system (copyright 1998, Gaussian, Inc.),
 the Gaussian(R) 94 system (copyright 1995, Gaussian, Inc.),
 the Gaussian 92(TM) system (copyright 1992, Gaussian, Inc.),
 the Gaussian 90(TM) system (copyright 1990, Gaussian, Inc.),
 the Gaussian 88(TM) system (copyright 1988, Gaussian, Inc.),
 the Gaussian 86(TM) system (copyright 1986, Carnegie Mellon
 University), and the Gaussian 82(TM) system (copyright 1983,
 Carnegie Mellon University). Gaussian is a federally registered
 trademark of Gaussian, Inc.
  
 This software contains proprietary and confidential information,
 including trade secrets, belonging to Gaussian, Inc.
  
 This software is provided under written license and may be
 used, copied, transmitted, or stored only in accord with that
 written license.
  
 The following legend is applicable only to US Government
 contracts under FAR:
  
                    RESTRICTED RIGHTS LEGEND
  
 Use, reproduction and disclosure by the US Government is
 subject to restrictions as set forth in subparagraphs (a)
 and (c) of the Commercial Computer Software - Restricted
 Rights clause in FAR 52.227-19.
  
 Gaussian, Inc.
 340 Quinnipiac St., Bldg. 40, Wallingford CT 06492
  
  
 ---------------------------------------------------------------
 Warning -- This program may not be used in any manner that
 competes with the business of Gaussian, Inc. or will provide
 assistance to any competitor of Gaussian, Inc.  The licensee
 of this program is prohibited from giving any competitor of
 Gaussian, Inc. access to this program.  By using this program,
 the user acknowledges that Gaussian, Inc. is engaged in the
 business of creating and licensing software in the field of
 computational chemistry and represents and warrants to the
 licensee that it is not a competitor of Gaussian, Inc. and that
 it will not use this program in any manner prohibited above.
 ---------------------------------------------------------------
  

 Cite this work as:
 Gaussian 16, Revision C.01,
 M. J. Frisch, G. W. Trucks, H. B. Schlegel, G. E. Scuseria, 
 M. A. Robb, J. R. Cheeseman, G. Scalmani, V. Barone, 
 G. A. Petersson, H. Nakatsuji, X. Li, M. Caricato, A. V. Marenich, 
 J. Bloino, B. G. Janesko, R. Gomperts, B. Mennucci, H. P. Hratchian, 
 J. V. Ortiz, A. F. Izmaylov, J. L. Sonnenberg, D. Williams-Young, 
 F. Ding, F. Lipparini, F. Egidi, J. Goings, B. Peng, A. Petrone, 
 T. Henderson, D. Ranasinghe, V. G. Zakrzewski, J. Gao, N. Rega, 
 G. Zheng, W. Liang, M. Hada, M. Ehara, K. Toyota, R. Fukuda, 
 J. Hasegawa, M. Ishida, T. Nakajima, Y. Honda, O. Kitao, H. Nakai, 
 T. Vreven, K. Throssell, J. A. Montgomery, Jr., J. E. Peralta, 
 F. Ogliaro, M. J. Bearpark, J. J. Heyd, E. N. Brothers, K. N. Kudin, 
 V. N. Staroverov, T. A. Keith, R. Kobayashi, J. Normand, 
 K. Raghavachari, A. P. Rendell, J. C. Burant, S. S. Iyengar, 
 J. Tomasi, M. Cossi, J. M. Millam, M. Klene, C. Adamo, R. Cammi, 
 J. W. Ochterski, R. L. Martin, K. Morokuma, O. Farkas, 
 J. B. Foresman, and D. J. Fox, Gaussian, Inc., Wallingford CT, 2019.
 
 ******************************************
 Gaussian 16:  ES64L-G16RevC.01  3-Jul-2019
                22-Aug-2025 
 ******************************************
 %mem=10GB
 %nprocs=8
 Will use up to    8 processors via shared memory.
 -----------------------------------------
 # sp b3lyp/6-311g** Force nosymm scf=(qc)
 -----------------------------------------
 1/10=4,30=1,38=1/1,3;
 2/12=2,15=1,17=6,18=5,40=1/2;
 3/5=4,6=6,7=101,11=2,25=1,30=1,71=2,74=-5,140=1/1,2,3;
 4//1;
 5/5=2,8=3,38=5,98=1/8;
 8/6=4,10=90,11=11/1;
 11/6=1,8=1,9=11,15=111,16=1,31=1/1,2,10;
 10/6=1,31=1/2;
 6/7=2,8=2,9=2,10=2,28=1/1;
 7/8=1,10=1,25=1,30=1/1,2,3,16;
 1/10=4,30=1/3;
 99//99;
 -------------------
 Title Card Required
 -------------------
 Symbolic Z-matrix:
 Charge =  0 Multiplicity = 2
 H                     0.        0.        0. 
 H                    -0.95      0.        0. 
 F                     3.4       0.        0. 
 

 GradGradGradGradGradGradGradGradGradGradGradGradGradGradGradGradGradGrad
 Berny optimization.
 Initialization pass.
 Trust Radius=3.00D-01 FncErr=1.00D-07 GrdErr=1.00D-07 EigMax=2.50D+02 EigMin=1.00D-04
 Number of steps in this run=      2 maximum allowed number of steps=      2.
 GradGradGradGradGradGradGradGradGradGradGradGradGradGradGradGradGradGrad

                          Input orientation:                          
 ---------------------------------------------------------------------
 Center     Atomic      Atomic             Coordinates (Angstroms)
 Number     Number       Type             X           Y           Z
 ---------------------------------------------------------------------
      1          1           0        0.000000    0.000000    0.000000
      2          1           0       -0.950000    0.000000    0.000000
      3          9           0        3.400000    0.000000    0.000000
 ---------------------------------------------------------------------
                    Distance matrix (angstroms):
                    1          2          3
     1  H    0.000000
     2  H    0.950000   0.000000
     3  F    3.400000   4.350000   0.000000
 Symmetry turned off by external request.
 Stoichiometry    FH2(2)
 Framework group  C*V[C*(HHF)]
 Deg. of freedom     2
 Full point group                 C*V     NOp   4
 Rotational constants (GHZ):           0.0000000          18.1673940          18.1673940
 Standard basis: 6-311G(d,p) (5D, 7F)
    30 basis functions,    48 primitive gaussians,    31 cartesian basis functions
     6 alpha electrons        5 beta electrons
       nuclear repulsion energy         3.0526412504 Hartrees.
 NAtoms=    3 NActive=    3 NUniq=    3 SFac= 1.00D+00 NAtFMM=   60 NAOKFM=F Big=F
 Integral buffers will be    131072 words long.
 Raffenetti 2 integral format.
 Two-electron integral symmetry is turned off.
 One-electron integrals computed using PRISM.
 NBasis=    30 RedAO= T EigKep=  3.25D-02  NBF=    30
 NBsUse=    30 1.00D-06 EigRej= -1.00D+00 NBFU=    30
 ExpMin= 1.03D-01 ExpMax= 1.14D+04 ExpMxC= 1.72D+03 IAcc=3 IRadAn=         5 AccDes= 0.00D+00
 Harris functional with IExCor=  402 and IRadAn=       5 diagonalized for initial guess.
 HarFok:  IExCor=  402 AccDes= 0.00D+00 IRadAn=         5 IDoV= 1 UseB2=F ITyADJ=14
 ICtDFT=  3500011 ScaDFX=  1.000000  1.000000  1.000000  1.000000
 FoFCou: FMM=F IPFlag=           0 FMFlag=      100000 FMFlg1=           0
         NFxFlg=           0 DoJE=T BraDBF=F KetDBF=T FulRan=T
         wScrn=  0.000000 ICntrl=       500 IOpCl=  0 I1Cent=   200000004 NGrid=           0
         NMat0=    1 NMatS0=      1 NMatT0=    0 NMatD0=    1 NMtDS0=    0 NMtDT0=    0
 Symmetry not used in FoFCou.
 Initial guess <Sx>= 0.0000 <Sy>= 0.0000 <Sz>= 0.5000 <S**2>= 0.7500 S= 0.5000
 Keep R1 and R2 ints in memory in canonical form, NReq=7127049.
 Gradient too large for Newton-Raphson -- use scaled steepest descent instead.
     Accept linear search using points  3 and  4.
 Gradient too large for Newton-Raphson -- use scaled steepest descent instead.
     Accept linear search using points  2 and  3.
 LinEq1:  Iter=  0 NonCon=     1 RMS=3.06D-04 Max=3.70D-03 NDo=     1
 AX will form     1 AO Fock derivatives at one time.
 LinEq1:  Iter=  1 NonCon=     1 RMS=1.75D-04 Max=1.69D-03 NDo=     1
 LinEq1:  Iter=  2 NonCon=     1 RMS=1.78D-05 Max=1.35D-04 NDo=     1
 LinEq1:  Iter=  3 NonCon=     1 RMS=2.31D-06 Max=2.39D-05 NDo=     1
 LinEq1:  Iter=  4 NonCon=     1 RMS=6.97D-07 Max=7.11D-06 NDo=     1
 LinEq1:  Iter=  5 NonCon=     1 RMS=1.78D-07 Max=1.76D-06 NDo=     1
 LinEq1:  Iter=  6 NonCon=     1 RMS=2.15D-08 Max=2.27D-07 NDo=     1
 LinEq1:  Iter=  7 NonCon=     1 RMS=1.14D-08 Max=1.37D-07 NDo=     1
 LinEq1:  Iter=  8 NonCon=     1 RMS=1.93D-09 Max=2.17D-08 NDo=     1
 LinEq1:  Iter=  9 NonCon=     0 RMS=7.50D-11 Max=4.57D-10 NDo=     1
 Linear equations converged to 1.640D-09 1.640D-08 after     9 iterations.
     Minimum is close to point  2 DX=  5.92D-04 DF= -1.30D-11 DXR=  5.92D-04 DFR=  3.51D-07 which will be used.
 LinEq1:  Iter=  0 NonCon=     1 RMS=2.82D-07 Max=2.15D-06 NDo=     1
 LinEq1:  Iter=  1 NonCon=     1 RMS=1.39D-07 Max=1.32D-06 NDo=     1
 LinEq1:  Iter=  2 NonCon=     1 RMS=3.79D-08 Max=5.55D-07 NDo=     1
 LinEq1:  Iter=  3 NonCon=     1 RMS=1.13D-08 Max=7.23D-08 NDo=     1
 LinEq1:  Iter=  4 NonCon=     1 RMS=1.15D-09 Max=8.29D-09 NDo=     1
 LinEq1:  Iter=  5 NonCon=     1 RMS=2.74D-10 Max=2.83D-09 NDo=     1
 LinEq1:  Iter=  6 NonCon=     0 RMS=8.05D-11 Max=8.56D-10 NDo=     1
 Linear equations converged to 8.657D-11 8.657D-10 after     6 iterations.
 LinEq1:  Iter=  0 NonCon=     1 RMS=5.62D-07 Max=5.92D-06 NDo=     1
 LinEq1:  Iter=  1 NonCon=     1 RMS=2.36D-07 Max=3.04D-06 NDo=     1
 LinEq1:  Iter=  2 NonCon=     1 RMS=6.96D-08 Max=6.65D-07 NDo=     1
 LinEq1:  Iter=  3 NonCon=     1 RMS=2.18D-08 Max=1.96D-07 NDo=     1
 LinEq1:  Iter=  4 NonCon=     1 RMS=1.03D-08 Max=1.24D-07 NDo=     1
 LinEq1:  Iter=  5 NonCon=     1 RMS=6.79D-09 Max=5.45D-08 NDo=     1
 LinEq1:  Iter=  6 NonCon=     1 RMS=1.19D-09 Max=9.70D-09 NDo=     1
 LinEq1:  Iter=  7 NonCon=     0 RMS=1.39D-10 Max=1.35D-09 NDo=     1
 Linear equations converged to 1.447D-10 1.447D-09 after     7 iterations.
 QCLLim is confused:  Bigger=T Turned=T
 NLin=  3 IMin12=  1  2 I12=  0  2 IX=  1 XLMin= 0.000D+00 XLMax= 0.000D+00
 X = 0.000D+00 1.000D+00 2.000D+00
 DE= 0.000D+00 6.978D-11 3.988D-10
 LinEq1:  Iter=  0 NonCon=     1 RMS=4.42D-07 Max=4.52D-06 NDo=     1
 LinEq1:  Iter=  1 NonCon=     1 RMS=1.84D-07 Max=2.34D-06 NDo=     1
 LinEq1:  Iter=  2 NonCon=     1 RMS=5.53D-08 Max=5.28D-07 NDo=     1
 LinEq1:  Iter=  3 NonCon=     1 RMS=1.95D-08 Max=1.94D-07 NDo=     1
 LinEq1:  Iter=  4 NonCon=     1 RMS=1.05D-08 Max=1.15D-07 NDo=     1
 LinEq1:  Iter=  5 NonCon=     1 RMS=7.04D-09 Max=5.97D-08 NDo=     1
 LinEq1:  Iter=  6 NonCon=     1 RMS=9.53D-10 Max=7.51D-09 NDo=     1
 LinEq1:  Iter=  7 NonCon=     0 RMS=1.06D-10 Max=8.81D-10 NDo=     1
 Linear equations converged to 1.410D-10 1.410D-09 after     7 iterations.
 QCLLim is confused:  Bigger=T Turned=T
 NLin=  3 IMin12=  1  2 I12=  0  2 IX=  1 XLMin= 0.000D+00 XLMax= 0.000D+00
 X = 0.000D+00 1.000D+00 2.000D+00
 DE= 0.000D+00 2.771D-11 1.870D-10
 LinEq1:  Iter=  0 NonCon=     1 RMS=3.21D-07 Max=3.17D-06 NDo=     1
 LinEq1:  Iter=  1 NonCon=     1 RMS=1.33D-07 Max=1.67D-06 NDo=     1
 LinEq1:  Iter=  2 NonCon=     1 RMS=4.15D-08 Max=3.89D-07 NDo=     1
 LinEq1:  Iter=  3 NonCon=     1 RMS=1.68D-08 Max=1.87D-07 NDo=     1
 LinEq1:  Iter=  4 NonCon=     1 RMS=9.80D-09 Max=9.30D-08 NDo=     1
 LinEq1:  Iter=  5 NonCon=     1 RMS=5.97D-09 Max=4.80D-08 NDo=     1
 LinEq1:  Iter=  6 NonCon=     1 RMS=8.09D-10 Max=5.93D-09 NDo=     1
 LinEq1:  Iter=  7 NonCon=     0 RMS=6.18D-11 Max=6.02D-10 NDo=     1
 Linear equations converged to 1.274D-10 1.274D-09 after     7 iterations.
 Incorrect curvature in search direction -- initial direction reversed.
 QCLLim is confused:  Bigger=T Turned=T
 NLin=  3 IMin12=  1  2 I12=  0  2 IX=  1 XLMin= 0.000D+00 XLMax= 0.000D+00
 X = 0.000D+00 1.000D+00 2.000D+00
 DE= 0.000D+00 1.663D-11 1.262D-10
 LinEq1:  Iter=  0 NonCon=     1 RMS=4.28D-07 Max=4.22D-06 NDo=     1
 LinEq1:  Iter=  1 NonCon=     1 RMS=1.76D-07 Max=2.22D-06 NDo=     1
 LinEq1:  Iter=  2 NonCon=     1 RMS=5.37D-08 Max=5.22D-07 NDo=     1
 LinEq1:  Iter=  3 NonCon=     1 RMS=1.96D-08 Max=1.95D-07 NDo=     1
 LinEq1:  Iter=  4 NonCon=     1 RMS=1.11D-08 Max=1.20D-07 NDo=     1
 LinEq1:  Iter=  5 NonCon=     1 RMS=7.51D-09 Max=5.92D-08 NDo=     1
 LinEq1:  Iter=  6 NonCon=     1 RMS=1.08D-09 Max=8.76D-09 NDo=     1
 LinEq1:  Iter=  7 NonCon=     0 RMS=1.08D-10 Max=1.00D-09 NDo=     1
 Linear equations converged to 1.559D-10 1.559D-09 after     7 iterations.
 QCLLim is confused:  Bigger=T Turned=T
 NLin=  3 IMin12=  1  2 I12=  0  2 IX=  1 XLMin= 0.000D+00 XLMax= 0.000D+00
 X = 0.000D+00 1.000D+00 2.000D+00
 DE= 0.000D+00 4.104D-11 2.188D-10
 LinEq1:  Iter=  0 NonCon=     1 RMS=3.47D-07 Max=3.34D-06 NDo=     1
 LinEq1:  Iter=  1 NonCon=     1 RMS=1.42D-07 Max=1.77D-06 NDo=     1
 LinEq1:  Iter=  2 NonCon=     1 RMS=4.43D-08 Max=4.25D-07 NDo=     1
 LinEq1:  Iter=  3 NonCon=     1 RMS=1.78D-08 Max=1.91D-07 NDo=     1
 LinEq1:  Iter=  4 NonCon=     1 RMS=1.05D-08 Max=1.05D-07 NDo=     1
 LinEq1:  Iter=  5 NonCon=     1 RMS=6.56D-09 Max=5.28D-08 NDo=     1
 LinEq1:  Iter=  6 NonCon=     1 RMS=9.07D-10 Max=6.83D-09 NDo=     1
 LinEq1:  Iter=  7 NonCon=     0 RMS=6.61D-11 Max=6.18D-10 NDo=     1
 Linear equations converged to 1.431D-10 1.431D-09 after     7 iterations.
 Incorrect curvature in search direction -- initial direction reversed.
 QCLLim is confused:  Bigger=T Turned=T
 NLin=  3 IMin12=  1  2 I12=  0  2 IX=  1 XLMin= 0.000D+00 XLMax= 0.000D+00
 X = 0.000D+00 1.000D+00 2.000D+00
 DE= 0.000D+00 4.543D-11 1.994D-10
 QCLLim is confused:  Bigger=T Turned=T
 NLin=  4 IMin12=  1  2 I12=  0  2 IX=  1 XLMin= 0.000D+00 XLMax= 0.000D+00
 X = 0.000D+00 1.000D+00 2.000D+00 4.000D+00
 DE= 0.000D+00 4.543D-11 1.994D-10 8.382D-10
 QCLLim is confused:  Bigger=T Turned=T
 NLin=  5 IMin12=  1  2 I12=  0  2 IX=  1 XLMin= 0.000D+00 XLMax= 0.000D+00
 X = 0.000D+00 1.000D+00 2.000D+00 4.000D+00 8.000D+00
 DE= 0.000D+00 4.543D-11 1.994D-10 8.382D-10 3.486D-09
 QCLLim is confused:  Bigger=T Turned=T
 NLin=  6 IMin12=  1  2 I12=  0  2 IX=  1 XLMin= 0.000D+00 XLMax= 0.000D+00
 X = 0.000D+00 1.000D+00 2.000D+00 4.000D+00 8.000D+00 1.600D+01
 DE= 0.000D+00 4.543D-11 1.994D-10 8.382D-10 3.486D-09 1.474D-08
 QCLLim is confused:  Bigger=T Turned=T
 NLin=  7 IMin12=  1  2 I12=  0  2 IX=  1 XLMin= 0.000D+00 XLMax= 0.000D+00
 X = 0.000D+00 1.000D+00 2.000D+00 4.000D+00 8.000D+00 1.600D+01 3.200D+01
 DE= 0.000D+00 4.543D-11 1.994D-10 8.382D-10 3.486D-09 1.474D-08 6.658D-08
 QCLLim is confused:  Bigger=T Turned=T
 NLin=  8 IMin12=  1  2 I12=  0  2 IX=  1 XLMin= 0.000D+00 XLMax= 0.000D+00
 X = 0.000D+00 1.000D+00 2.000D+00 4.000D+00 8.000D+00 1.600D+01 3.200D+01 6.400D+01
 DE= 0.000D+00 4.543D-11 1.994D-10 8.382D-10 3.486D-09 1.474D-08 6.658D-08 3.588D-07
 QCLLim is confused:  Bigger=T Turned=T
 NLin=  9 IMin12=  1  2 I12=  0  2 IX=  1 XLMin= 0.000D+00 XLMax= 0.000D+00
 X = 0.000D+00 1.000D+00 2.000D+00 4.000D+00 8.000D+00 1.600D+01 3.200D+01 6.400D+01 1.280D+02
 DE= 0.000D+00 4.543D-11 1.994D-10 8.382D-10 3.486D-09 1.474D-08 6.658D-08 3.588D-07 2.691D-06
     Note:  rotation exceeds Pi/2.
     Note:  rotation exceeds Pi/2.
     Note:  rotation exceeds Pi/2.
     Note:  rotation exceeds Pi/2.
 Search did not lower the energy significantly.
 No lower point found -- switch to scaled steepest descent.
     Minimum is close to point  2 DX= -4.38D-02 DF= -9.95D-14 DXR=  4.58D-02 DFR=  1.98D-03 which will be used.
 LinEq1:  Iter=  0 NonCon=     1 RMS=1.50D-07 Max=1.93D-06 NDo=     1
 LinEq1:  Iter=  1 NonCon=     1 RMS=6.86D-08 Max=8.80D-07 NDo=     1
 LinEq1:  Iter=  2 NonCon=     1 RMS=1.78D-08 Max=1.87D-07 NDo=     1
 LinEq1:  Iter=  3 NonCon=     1 RMS=1.23D-08 Max=1.36D-07 NDo=     1
 LinEq1:  Iter=  4 NonCon=     1 RMS=6.56D-09 Max=5.22D-08 NDo=     1
 LinEq1:  Iter=  5 NonCon=     1 RMS=2.00D-09 Max=1.55D-08 NDo=     1
 LinEq1:  Iter=  6 NonCon=     1 RMS=8.87D-11 Max=5.56D-10 NDo=     1
 LinEq1:  Iter=  7 NonCon=     0 RMS=1.14D-11 Max=9.97D-11 NDo=     1
 Linear equations converged to 3.084D-11 3.084D-10 after     7 iterations.
 Incorrect curvature in search direction -- initial direction reversed.
 LinEq1:  Iter=  0 NonCon=     1 RMS=6.89D-07 Max=6.51D-06 NDo=     1
 LinEq1:  Iter=  1 NonCon=     1 RMS=2.63D-07 Max=3.33D-06 NDo=     1
 LinEq1:  Iter=  2 NonCon=     1 RMS=9.14D-08 Max=9.27D-07 NDo=     1
 LinEq1:  Iter=  3 NonCon=     1 RMS=2.88D-08 Max=2.24D-07 NDo=     1
 LinEq1:  Iter=  4 NonCon=     1 RMS=1.27D-08 Max=1.02D-07 NDo=     1
 LinEq1:  Iter=  5 NonCon=     1 RMS=8.10D-09 Max=1.14D-07 NDo=     1
 LinEq1:  Iter=  6 NonCon=     1 RMS=1.95D-09 Max=2.14D-08 NDo=     1
 LinEq1:  Iter=  7 NonCon=     0 RMS=1.68D-10 Max=1.12D-09 NDo=     1
 Linear equations converged to 1.852D-10 1.852D-09 after     7 iterations.
 LinEq1:  Iter=  0 NonCon=     1 RMS=7.30D-08 Max=4.88D-07 NDo=     1
 LinEq1:  Iter=  1 NonCon=     1 RMS=1.37D-08 Max=9.71D-08 NDo=     1
 LinEq1:  Iter=  2 NonCon=     1 RMS=6.27D-09 Max=8.06D-08 NDo=     1
 LinEq1:  Iter=  3 NonCon=     1 RMS=4.11D-09 Max=3.57D-08 NDo=     1
 LinEq1:  Iter=  4 NonCon=     1 RMS=1.61D-09 Max=1.09D-08 NDo=     1
 LinEq1:  Iter=  5 NonCon=     1 RMS=2.25D-10 Max=2.13D-09 NDo=     1
 LinEq1:  Iter=  6 NonCon=     1 RMS=8.13D-11 Max=9.84D-10 NDo=     1
 LinEq1:  Iter=  7 NonCon=     0 RMS=2.41D-11 Max=2.57D-10 NDo=     1
 Linear equations converged to 4.329D-11 4.329D-10 after     7 iterations.
 Incorrect curvature in search direction -- initial direction reversed.
     Minimum is close to point  2 DX=  4.48D-02 DF= -2.84D-14 DXR=  4.29D-02 DFR=  1.44D-03 which will be used.
 LinEq1:  Iter=  0 NonCon=     1 RMS=1.98D-07 Max=1.41D-06 NDo=     1
 LinEq1:  Iter=  1 NonCon=     1 RMS=5.46D-08 Max=6.20D-07 NDo=     1
 LinEq1:  Iter=  2 NonCon=     1 RMS=2.25D-08 Max=2.36D-07 NDo=     1
 LinEq1:  Iter=  3 NonCon=     1 RMS=9.58D-09 Max=8.64D-08 NDo=     1
 LinEq1:  Iter=  4 NonCon=     1 RMS=5.42D-09 Max=5.81D-08 NDo=     1
 LinEq1:  Iter=  5 NonCon=     1 RMS=3.45D-09 Max=3.37D-08 NDo=     1
 LinEq1:  Iter=  6 NonCon=     1 RMS=7.43D-10 Max=3.76D-09 NDo=     1
 LinEq1:  Iter=  7 NonCon=     0 RMS=2.18D-11 Max=1.68D-10 NDo=     1
 Linear equations converged to 1.066D-10 1.066D-09 after     7 iterations.
 QCLLim is confused:  Bigger=T Turned=T
 NLin=  3 IMin12=  1  2 I12=  0  2 IX=  1 XLMin= 0.000D+00 XLMax= 0.000D+00
 X = 0.000D+00 1.000D+00 2.000D+00
 DE= 0.000D+00 2.908D-11 1.872D-10
 LinEq1:  Iter=  0 NonCon=     1 RMS=1.49D-07 Max=1.13D-06 NDo=     1
 LinEq1:  Iter=  1 NonCon=     1 RMS=4.13D-08 Max=4.54D-07 NDo=     1
 LinEq1:  Iter=  2 NonCon=     1 RMS=1.79D-08 Max=1.71D-07 NDo=     1
 LinEq1:  Iter=  3 NonCon=     1 RMS=8.23D-09 Max=6.82D-08 NDo=     1
 LinEq1:  Iter=  4 NonCon=     1 RMS=4.93D-09 Max=5.34D-08 NDo=     1
 LinEq1:  Iter=  5 NonCon=     1 RMS=2.86D-09 Max=2.25D-08 NDo=     1
 LinEq1:  Iter=  6 NonCon=     1 RMS=6.45D-10 Max=3.13D-09 NDo=     1
 LinEq1:  Iter=  7 NonCon=     0 RMS=3.03D-11 Max=2.17D-10 NDo=     1
 Linear equations converged to 9.373D-11 9.373D-10 after     7 iterations.
 LinEq1:  Iter=  0 NonCon=     1 RMS=4.58D-08 Max=3.28D-07 NDo=     1
 LinEq1:  Iter=  1 NonCon=     1 RMS=1.00D-08 Max=8.40D-08 NDo=     1
 LinEq1:  Iter=  2 NonCon=     1 RMS=9.21D-09 Max=1.15D-07 NDo=     1
 LinEq1:  Iter=  3 NonCon=     1 RMS=3.90D-09 Max=2.64D-08 NDo=     1
 LinEq1:  Iter=  4 NonCon=     1 RMS=6.18D-10 Max=3.88D-09 NDo=     1
 LinEq1:  Iter=  5 NonCon=     1 RMS=8.56D-11 Max=6.51D-10 NDo=     1
 LinEq1:  Iter=  6 NonCon=     0 RMS=2.41D-11 Max=1.93D-10 NDo=     1
 Linear equations converged to 6.270D-11 6.270D-10 after     6 iterations.
 LinEq1:  Iter=  0 NonCon=     1 RMS=3.51D-08 Max=2.80D-07 NDo=     1
 LinEq1:  Iter=  1 NonCon=     1 RMS=1.32D-08 Max=1.16D-07 NDo=     1
 LinEq1:  Iter=  2 NonCon=     1 RMS=8.62D-09 Max=1.13D-07 NDo=     1
 LinEq1:  Iter=  3 NonCon=     1 RMS=4.63D-09 Max=3.26D-08 NDo=     1
 LinEq1:  Iter=  4 NonCon=     1 RMS=1.87D-09 Max=1.81D-08 NDo=     1
 LinEq1:  Iter=  5 NonCon=     1 RMS=7.27D-10 Max=6.19D-09 NDo=     1
 LinEq1:  Iter=  6 NonCon=     1 RMS=1.34D-10 Max=6.25D-10 NDo=     1
 LinEq1:  Iter=  7 NonCon=     0 RMS=1.60D-11 Max=1.03D-10 NDo=     1
 Linear equations converged to 4.973D-11 4.973D-10 after     7 iterations.
 Incorrect curvature in search direction -- initial direction reversed.
     Minimum is close to point  2 DX= -5.97D-02 DF= -1.42D-14 DXR=  6.35D-02 DFR=  4.17D-03 which will be used.
 LinEq1:  Iter=  0 NonCon=     1 RMS=7.96D-08 Max=5.34D-07 NDo=     1
 LinEq1:  Iter=  1 NonCon=     1 RMS=3.23D-08 Max=2.45D-07 NDo=     1
 LinEq1:  Iter=  2 NonCon=     1 RMS=1.48D-08 Max=1.30D-07 NDo=     1
 LinEq1:  Iter=  3 NonCon=     1 RMS=9.35D-09 Max=1.11D-07 NDo=     1
 LinEq1:  Iter=  4 NonCon=     1 RMS=4.33D-09 Max=2.96D-08 NDo=     1
 LinEq1:  Iter=  5 NonCon=     1 RMS=1.14D-09 Max=1.05D-08 NDo=     1
 LinEq1:  Iter=  6 NonCon=     1 RMS=3.43D-10 Max=1.89D-09 NDo=     1
 LinEq1:  Iter=  7 NonCon=     0 RMS=4.61D-11 Max=3.18D-10 NDo=     1
 Linear equations converged to 1.685D-10 1.685D-09 after     7 iterations.
 LinEq1:  Iter=  0 NonCon=     1 RMS=3.29D-08 Max=2.27D-07 NDo=     1
 LinEq1:  Iter=  1 NonCon=     1 RMS=8.93D-09 Max=7.91D-08 NDo=     1
 LinEq1:  Iter=  2 NonCon=     1 RMS=8.11D-09 Max=9.23D-08 NDo=     1
 LinEq1:  Iter=  3 NonCon=     1 RMS=3.94D-09 Max=2.87D-08 NDo=     1
 LinEq1:  Iter=  4 NonCon=     1 RMS=9.11D-10 Max=7.43D-09 NDo=     1
 LinEq1:  Iter=  5 NonCon=     1 RMS=2.65D-10 Max=2.13D-09 NDo=     1
 LinEq1:  Iter=  6 NonCon=     1 RMS=5.13D-11 Max=4.40D-10 NDo=     1
 LinEq1:  Iter=  7 NonCon=     0 RMS=1.70D-11 Max=1.43D-10 NDo=     1
 Linear equations converged to 4.540D-11 4.540D-10 after     7 iterations.
 Incorrect curvature in search direction -- initial direction reversed.
 LinEq1:  Iter=  0 NonCon=     1 RMS=7.29D-08 Max=3.97D-07 NDo=     1
 LinEq1:  Iter=  1 NonCon=     1 RMS=2.98D-08 Max=2.13D-07 NDo=     1
 LinEq1:  Iter=  2 NonCon=     1 RMS=1.41D-08 Max=1.27D-07 NDo=     1
 LinEq1:  Iter=  3 NonCon=     1 RMS=8.85D-09 Max=1.09D-07 NDo=     1
 LinEq1:  Iter=  4 NonCon=     1 RMS=3.84D-09 Max=2.20D-08 NDo=     1
 LinEq1:  Iter=  5 NonCon=     1 RMS=6.14D-10 Max=5.56D-09 NDo=     1
 LinEq1:  Iter=  6 NonCon=     0 RMS=1.25D-10 Max=6.63D-10 NDo=     1
 Linear equations converged to 1.396D-10 1.396D-09 after     6 iterations.
 LinEq1:  Iter=  0 NonCon=     1 RMS=3.55D-08 Max=1.89D-07 NDo=     1
 LinEq1:  Iter=  1 NonCon=     1 RMS=1.07D-08 Max=7.87D-08 NDo=     1
 LinEq1:  Iter=  2 NonCon=     1 RMS=6.66D-09 Max=5.86D-08 NDo=     1
 LinEq1:  Iter=  3 NonCon=     1 RMS=4.14D-09 Max=4.13D-08 NDo=     1
 LinEq1:  Iter=  4 NonCon=     1 RMS=1.80D-09 Max=1.22D-08 NDo=     1
 LinEq1:  Iter=  5 NonCon=     1 RMS=3.51D-10 Max=2.85D-09 NDo=     1
 LinEq1:  Iter=  6 NonCon=     1 RMS=1.14D-10 Max=9.06D-10 NDo=     1
 LinEq1:  Iter=  7 NonCon=     0 RMS=2.05D-11 Max=9.27D-11 NDo=     1
 Linear equations converged to 3.009D-11 3.009D-10 after     7 iterations.
 Incorrect curvature in search direction -- initial direction reversed.
 QCLLim is confused:  Bigger=T Turned=T
 NLin=  3 IMin12=  1  2 I12=  0  2 IX=  1 XLMin= 0.000D+00 XLMax= 0.000D+00
 X = 0.000D+00 1.000D+00 2.000D+00
 DE= 0.000D+00 2.274D-13 7.361D-12
 QCLLim is confused:  Bigger=T Turned=T
 NLin=  4 IMin12=  1  2 I12=  0  2 IX=  1 XLMin= 0.000D+00 XLMax= 0.000D+00
 X = 0.000D+00 1.000D+00 2.000D+00 4.000D+00
 DE= 0.000D+00 2.274D-13 7.361D-12 4.269D-11
 QCLLim is confused:  Bigger=T Turned=T
 NLin=  5 IMin12=  1  2 I12=  0  2 IX=  1 XLMin= 0.000D+00 XLMax= 0.000D+00
 X = 0.000D+00 1.000D+00 2.000D+00 4.000D+00 8.000D+00
 DE= 0.000D+00 2.274D-13 7.361D-12 4.269D-11 1.974D-10
 QCLLim is confused:  Bigger=T Turned=T
 NLin=  6 IMin12=  1  2 I12=  0  2 IX=  1 XLMin= 0.000D+00 XLMax= 0.000D+00
 X = 0.000D+00 1.000D+00 2.000D+00 4.000D+00 8.000D+00 1.600D+01
 DE= 0.000D+00 2.274D-13 7.361D-12 4.269D-11 1.974D-10 8.452D-10
 QCLLim is confused:  Bigger=T Turned=T
 NLin=  7 IMin12=  1  2 I12=  0  2 IX=  1 XLMin= 0.000D+00 XLMax= 0.000D+00
 X = 0.000D+00 1.000D+00 2.000D+00 4.000D+00 8.000D+00 1.600D+01 3.200D+01
 DE= 0.000D+00 2.274D-13 7.361D-12 4.269D-11 1.974D-10 8.452D-10 3.511D-09
 QCLLim is confused:  Bigger=T Turned=T
 NLin=  8 IMin12=  1  2 I12=  0  2 IX=  1 XLMin= 0.000D+00 XLMax= 0.000D+00
 X = 0.000D+00 1.000D+00 2.000D+00 4.000D+00 8.000D+00 1.600D+01 3.200D+01 6.400D+01
 DE= 0.000D+00 2.274D-13 7.361D-12 4.269D-11 1.974D-10 8.452D-10 3.511D-09 1.448D-08
 QCLLim is confused:  Bigger=T Turned=T
 NLin= 10 IMin12=  1  2 I12=  0  2 IX=  1 XLMin= 0.000D+00 XLMax= 0.000D+00
 X = 0.000D+00 1.000D+00 2.000D+00 4.000D+00 8.000D+00 1.600D+01 3.200D+01 6.400D+01 1.280D+02 2.560D+02
 DE= 0.000D+00 2.274D-13 7.361D-12 4.269D-11 1.974D-10 8.452D-10 3.511D-09 1.448D-08 6.061D-08 2.694D-07
 QCLLim is confused:  Bigger=T Turned=T
 NLin= 11 IMin12=  1  2 I12=  0  2 IX=  1 XLMin= 0.000D+00 XLMax= 0.000D+00
 X = 0.000D+00 1.000D+00 2.000D+00 4.000D+00 8.000D+00 1.600D+01 3.200D+01 6.400D+01 1.280D+02 2.560D+02 5.120D+02
 DE= 0.000D+00 2.274D-13 7.361D-12 4.269D-11 1.974D-10 8.452D-10 3.511D-09 1.448D-08 6.061D-08 2.694D-07 1.413D-06
     Note:  rotation exceeds Pi/2.
 Search did not lower the energy significantly.
 No lower point found -- switch to scaled steepest descent.
 Search did not lower the energy significantly.
 Scaled steepest descent with Shift=0.000 failed.
 Search did not lower the energy significantly.
 Scaled steepest descent with Shift=0.025 failed.
 Search did not lower the energy significantly.
 Scaled steepest descent with Shift=0.050 failed.
 Search did not lower the energy significantly.
 Scaled steepest descent with Shift=0.075 failed.
 Search did not lower the energy significantly.
 No lower point found -- switch to steepest descent.
 LinEq1:  Iter=  0 NonCon=     1 RMS=1.50D-07 Max=1.43D-06 NDo=     1
 LinEq1:  Iter=  1 NonCon=     1 RMS=7.53D-08 Max=4.78D-07 NDo=     1
 LinEq1:  Iter=  2 NonCon=     1 RMS=2.08D-08 Max=1.83D-07 NDo=     1
 LinEq1:  Iter=  3 NonCon=     1 RMS=8.40D-09 Max=8.83D-08 NDo=     1
 LinEq1:  Iter=  4 NonCon=     1 RMS=3.07D-09 Max=2.69D-08 NDo=     1
 LinEq1:  Iter=  5 NonCon=     0 RMS=9.14D-10 Max=7.63D-09 NDo=     1
 Linear equations converged to 1.640D-09 1.640D-08 after     5 iterations.
     Accept linear search using points  1 and  2.
     Minimum is close to point  2 DX= -3.96D-03 DF=  0.00D+00 DXR=  3.97D-03 DFR=  0.00D+00 which will be used.
 LinEq1:  Iter=  0 NonCon=     1 RMS=4.48D-08 Max=3.74D-07 NDo=     1
 LinEq1:  Iter=  1 NonCon=     1 RMS=2.06D-08 Max=2.15D-07 NDo=     1
 LinEq1:  Iter=  2 NonCon=     1 RMS=1.25D-08 Max=1.04D-07 NDo=     1
 LinEq1:  Iter=  3 NonCon=     1 RMS=5.87D-09 Max=5.74D-08 NDo=     1
 LinEq1:  Iter=  4 NonCon=     1 RMS=3.62D-09 Max=3.67D-08 NDo=     1
 LinEq1:  Iter=  5 NonCon=     1 RMS=1.11D-09 Max=6.74D-09 NDo=     1
 LinEq1:  Iter=  6 NonCon=     1 RMS=1.48D-10 Max=9.03D-10 NDo=     1
 LinEq1:  Iter=  7 NonCon=     0 RMS=1.51D-11 Max=1.02D-10 NDo=     1
 Linear equations converged to 6.559D-11 6.559D-10 after     7 iterations.
 QCLLim is confused:  Bigger=T Turned=T
 NLin=  3 IMin12=  1  2 I12=  0  2 IX=  1 XLMin= 0.000D+00 XLMax= 0.000D+00
 X = 0.000D+00 1.000D+00 2.000D+00
 DE= 0.000D+00 7.222D-11 4.738D-10
 LinEq1:  Iter=  0 NonCon=     1 RMS=9.76D-08 Max=6.59D-07 NDo=     1
 LinEq1:  Iter=  1 NonCon=     1 RMS=3.27D-08 Max=2.47D-07 NDo=     1
 LinEq1:  Iter=  2 NonCon=     1 RMS=1.78D-08 Max=1.32D-07 NDo=     1
 LinEq1:  Iter=  3 NonCon=     1 RMS=7.37D-09 Max=9.01D-08 NDo=     1
 LinEq1:  Iter=  4 NonCon=     1 RMS=3.52D-09 Max=3.71D-08 NDo=     1
 LinEq1:  Iter=  5 NonCon=     1 RMS=1.31D-09 Max=1.49D-08 NDo=     1
 LinEq1:  Iter=  6 NonCon=     1 RMS=2.32D-10 Max=2.25D-09 NDo=     1
 LinEq1:  Iter=  7 NonCon=     0 RMS=1.98D-11 Max=1.54D-10 NDo=     1
 Linear equations converged to 1.501D-10 1.501D-09 after     7 iterations.
 Incorrect curvature in search direction -- initial direction reversed.
     Minimum is close to point  3 DX= -9.06D-05 DF= -1.42D-14 DXR=  3.40D-03 DFR=  4.03D-03 which will be used.
 LinEq1:  Iter=  0 NonCon=     1 RMS=1.21D-07 Max=7.95D-07 NDo=     1
 LinEq1:  Iter=  1 NonCon=     1 RMS=3.34D-08 Max=2.64D-07 NDo=     1
 LinEq1:  Iter=  2 NonCon=     1 RMS=1.94D-08 Max=1.68D-07 NDo=     1
 LinEq1:  Iter=  3 NonCon=     1 RMS=7.66D-09 Max=1.01D-07 NDo=     1
 LinEq1:  Iter=  4 NonCon=     1 RMS=3.90D-09 Max=3.19D-08 NDo=     1
 LinEq1:  Iter=  5 NonCon=     1 RMS=1.16D-09 Max=1.22D-08 NDo=     1
 LinEq1:  Iter=  6 NonCon=     1 RMS=3.91D-10 Max=3.91D-09 NDo=     1
 LinEq1:  Iter=  7 NonCon=     0 RMS=7.31D-11 Max=5.87D-10 NDo=     1
 Linear equations converged to 1.364D-10 1.364D-09 after     7 iterations.
 QCLLim is confused:  Bigger=T Turned=T
 NLin=  3 IMin12=  1  2 I12=  0  2 IX=  1 XLMin= 0.000D+00 XLMax= 0.000D+00
 X = 0.000D+00 1.000D+00 2.000D+00
 DE= 0.000D+00 7.049D-12 8.487D-11
 LinEq1:  Iter=  0 NonCon=     1 RMS=9.89D-08 Max=5.90D-07 NDo=     1
 LinEq1:  Iter=  1 NonCon=     1 RMS=4.18D-08 Max=3.16D-07 NDo=     1
 LinEq1:  Iter=  2 NonCon=     1 RMS=2.09D-08 Max=1.54D-07 NDo=     1
 LinEq1:  Iter=  3 NonCon=     1 RMS=7.25D-09 Max=8.53D-08 NDo=     1
 LinEq1:  Iter=  4 NonCon=     1 RMS=3.70D-09 Max=3.84D-08 NDo=     1
 LinEq1:  Iter=  5 NonCon=     1 RMS=1.50D-09 Max=1.69D-08 NDo=     1
 LinEq1:  Iter=  6 NonCon=     1 RMS=3.11D-10 Max=1.43D-09 NDo=     1
 LinEq1:  Iter=  7 NonCon=     0 RMS=1.68D-11 Max=1.18D-10 NDo=     1
 Linear equations converged to 1.207D-10 1.207D-09 after     7 iterations.
 Incorrect curvature in search direction -- initial direction reversed.
 Search did not lower the energy significantly.
 No lower point found -- switch to scaled steepest descent.
     Minimum is close to point  2 DX= -5.65D-02 DF= -2.84D-14 DXR=  5.99D-02 DFR=  2.33D-03 which will be used.
 LinEq1:  Iter=  0 NonCon=     1 RMS=4.22D-08 Max=3.38D-07 NDo=     1
 LinEq1:  Iter=  1 NonCon=     1 RMS=2.23D-08 Max=1.81D-07 NDo=     1
 LinEq1:  Iter=  2 NonCon=     1 RMS=7.29D-09 Max=8.40D-08 NDo=     1
 LinEq1:  Iter=  3 NonCon=     1 RMS=4.05D-09 Max=4.01D-08 NDo=     1
 LinEq1:  Iter=  4 NonCon=     1 RMS=1.51D-09 Max=1.68D-08 NDo=     1
 LinEq1:  Iter=  5 NonCon=     1 RMS=4.02D-10 Max=2.17D-09 NDo=     1
 LinEq1:  Iter=  6 NonCon=     1 RMS=4.03D-11 Max=2.63D-10 NDo=     1
 LinEq1:  Iter=  7 NonCon=     0 RMS=1.62D-12 Max=9.34D-12 NDo=     1
 Linear equations converged to 1.571D-11 1.571D-10 after     7 iterations.
 LinEq1:  Iter=  0 NonCon=     1 RMS=1.40D-07 Max=1.02D-06 NDo=     1
 LinEq1:  Iter=  1 NonCon=     1 RMS=1.78D-08 Max=1.54D-07 NDo=     1
 LinEq1:  Iter=  2 NonCon=     1 RMS=3.10D-09 Max=1.82D-08 NDo=     1
 LinEq1:  Iter=  3 NonCon=     1 RMS=1.55D-09 Max=1.38D-08 NDo=     1
 LinEq1:  Iter=  4 NonCon=     1 RMS=9.60D-10 Max=1.20D-08 NDo=     1
 LinEq1:  Iter=  5 NonCon=     1 RMS=4.27D-10 Max=3.74D-09 NDo=     1
 LinEq1:  Iter=  6 NonCon=     0 RMS=9.69D-11 Max=8.23D-10 NDo=     1
 Linear equations converged to 1.649D-10 1.649D-09 after     6 iterations.
 LinEq1:  Iter=  0 NonCon=     1 RMS=8.82D-09 Max=7.50D-08 NDo=     1
 LinEq1:  Iter=  1 NonCon=     1 RMS=2.97D-09 Max=3.64D-08 NDo=     1
 LinEq1:  Iter=  2 NonCon=     1 RMS=1.65D-09 Max=1.27D-08 NDo=     1
 LinEq1:  Iter=  3 NonCon=     1 RMS=7.50D-10 Max=7.65D-09 NDo=     1
 LinEq1:  Iter=  4 NonCon=     1 RMS=4.81D-10 Max=5.11D-09 NDo=     1
 LinEq1:  Iter=  5 NonCon=     1 RMS=1.91D-10 Max=1.27D-09 NDo=     1
 LinEq1:  Iter=  6 NonCon=     1 RMS=3.85D-11 Max=2.24D-10 NDo=     1
 LinEq1:  Iter=  7 NonCon=     0 RMS=5.18D-12 Max=3.44D-11 NDo=     1
 Linear equations converged to 1.979D-11 1.979D-10 after     7 iterations.
 QCLLim is confused:  Bigger=T Turned=T
 NLin=  3 IMin12=  1  2 I12=  0  2 IX=  1 XLMin= 0.000D+00 XLMax= 0.000D+00
 X = 0.000D+00 1.000D+00 2.000D+00
 DE= 0.000D+00 4.093D-12 1.663D-11
 QCLLim is confused:  Bigger=T Turned=T
 NLin=  4 IMin12=  1  2 I12=  0  2 IX=  1 XLMin= 0.000D+00 XLMax= 0.000D+00
 X = 0.000D+00 1.000D+00 2.000D+00 4.000D+00
 DE= 0.000D+00 4.093D-12 1.663D-11 6.705D-11
 QCLLim is confused:  Bigger=T Turned=T
 NLin=  5 IMin12=  1  2 I12=  0  2 IX=  1 XLMin= 0.000D+00 XLMax= 0.000D+00
 X = 0.000D+00 1.000D+00 2.000D+00 4.000D+00 8.000D+00
 DE= 0.000D+00 4.093D-12 1.663D-11 6.705D-11 2.681D-10
 QCLLim is confused:  Bigger=T Turned=T
 NLin=  6 IMin12=  1  2 I12=  0  2 IX=  1 XLMin= 0.000D+00 XLMax= 0.000D+00
 X = 0.000D+00 1.000D+00 2.000D+00 4.000D+00 8.000D+00 1.600D+01
 DE= 0.000D+00 4.093D-12 1.663D-11 6.705D-11 2.681D-10 1.069D-09
 QCLLim is confused:  Bigger=T Turned=T
 NLin=  7 IMin12=  1  2 I12=  0  2 IX=  1 XLMin= 0.000D+00 XLMax= 0.000D+00
 X = 0.000D+00 1.000D+00 2.000D+00 4.000D+00 8.000D+00 1.600D+01 3.200D+01
 DE= 0.000D+00 4.093D-12 1.663D-11 6.705D-11 2.681D-10 1.069D-09 4.243D-09
 QCLLim is confused:  Bigger=T Turned=T
 NLin=  8 IMin12=  1  2 I12=  0  2 IX=  1 XLMin= 0.000D+00 XLMax= 0.000D+00
 X = 0.000D+00 1.000D+00 2.000D+00 4.000D+00 8.000D+00 1.600D+01 3.200D+01 6.400D+01
 DE= 0.000D+00 4.093D-12 1.663D-11 6.705D-11 2.681D-10 1.069D-09 4.243D-09 1.670D-08
 QCLLim is confused:  Bigger=T Turned=T
 NLin=  9 IMin12=  1  2 I12=  0  2 IX=  1 XLMin= 0.000D+00 XLMax= 0.000D+00
 X = 0.000D+00 1.000D+00 2.000D+00 4.000D+00 8.000D+00 1.600D+01 3.200D+01 6.400D+01 1.280D+02
 DE= 0.000D+00 4.093D-12 1.663D-11 6.705D-11 2.681D-10 1.069D-09 4.243D-09 1.670D-08 6.489D-08
 QCLLim is confused:  Bigger=T Turned=T
 NLin= 10 IMin12=  1  2 I12=  0  2 IX=  1 XLMin= 0.000D+00 XLMax= 0.000D+00
 X = 0.000D+00 1.000D+00 2.000D+00 4.000D+00 8.000D+00 1.600D+01 3.200D+01 6.400D+01 1.280D+02 2.560D+02
 DE= 0.000D+00 4.093D-12 1.663D-11 6.705D-11 2.681D-10 1.069D-09 4.243D-09 1.670D-08 6.489D-08 2.488D-07
 QCLLim is confused:  Bigger=T Turned=T
 NLin= 11 IMin12=  1  2 I12=  0  2 IX=  1 XLMin= 0.000D+00 XLMax= 0.000D+00
 X = 0.000D+00 1.000D+00 2.000D+00 4.000D+00 8.000D+00 1.600D+01 3.200D+01 6.400D+01 1.280D+02 2.560D+02 5.120D+02
 DE= 0.000D+00 4.093D-12 1.663D-11 6.705D-11 2.681D-10 1.069D-09 4.243D-09 1.670D-08 6.489D-08 2.488D-07 9.827D-07
 QCLLim is confused:  Bigger=T Turned=T
 NLin= 12 IMin12=  1  2 I12=  0  2 IX=  1 XLMin= 0.000D+00 XLMax= 0.000D+00
 X = 0.000D+00 1.000D+00 2.000D+00 4.000D+00 8.000D+00 1.600D+01 3.200D+01 6.400D+01 1.280D+02 2.560D+02 5.120D+02 1.024D+03
 DE= 0.000D+00 4.093D-12 1.663D-11 6.705D-11 2.681D-10 1.069D-09 4.243D-09 1.670D-08 6.489D-08 2.488D-07 9.827D-07 4.979D-06
 QCLLim is confused:  Bigger=T Turned=T
 NLin= 14 IMin12=  1  2 I12=  0  2 IX=  1 XLMin= 0.000D+00 XLMax= 0.000D+00
 X = 0.000D+00 1.000D+00 2.000D+00 4.000D+00 8.000D+00 1.600D+01 3.200D+01 6.400D+01 1.280D+02 2.560D+02 5.120D+02 1.024D+03 2.048D+03 4.096D+03
 DE= 0.000D+00 4.093D-12 1.663D-11 6.705D-11 2.681D-10 1.069D-09 4.243D-09 1.670D-08 6.489D-08 2.488D-07 9.827D-07 4.979D-06 4.660D-05 6.587D-04
 QCLLim is confused:  Bigger=T Turned=T
 NLin= 15 IMin12=  1  2 I12=  0  2 IX=  1 XLMin= 0.000D+00 XLMax= 0.000D+00
 X = 0.000D+00 1.000D+00 2.000D+00 4.000D+00 8.000D+00 1.600D+01 3.200D+01 6.400D+01 1.280D+02 2.560D+02 5.120D+02 1.024D+03 2.048D+03 4.096D+03 8.192D+03
 DE= 0.000D+00 4.093D-12 1.663D-11 6.705D-11 2.681D-10 1.069D-09 4.243D-09 1.670D-08 6.489D-08 2.488D-07 9.827D-07 4.979D-06 4.660D-05 6.587D-04 8.378D-03
     Note:  rotation exceeds Pi/2.
 Search did not lower the energy significantly.
 No lower point found -- using Newton-Raphson step.
 LinEq1:  Iter=  0 NonCon=     1 RMS=6.27D-08 Max=4.13D-07 NDo=     1
 LinEq1:  Iter=  1 NonCon=     1 RMS=1.66D-08 Max=1.09D-07 NDo=     1
 LinEq1:  Iter=  2 NonCon=     1 RMS=8.97D-09 Max=6.10D-08 NDo=     1
 LinEq1:  Iter=  3 NonCon=     1 RMS=1.68D-09 Max=1.35D-08 NDo=     1
 LinEq1:  Iter=  4 NonCon=     1 RMS=8.36D-10 Max=1.05D-08 NDo=     1
 LinEq1:  Iter=  5 NonCon=     1 RMS=3.71D-10 Max=3.35D-09 NDo=     1
 LinEq1:  Iter=  6 NonCon=     0 RMS=1.23D-10 Max=1.31D-09 NDo=     1
 Linear equations converged to 1.377D-10 1.377D-09 after     6 iterations.
 LinEq1:  Iter=  0 NonCon=     1 RMS=3.01D-09 Max=3.19D-08 NDo=     1
 LinEq1:  Iter=  1 NonCon=     1 RMS=1.46D-09 Max=1.66D-08 NDo=     1
 LinEq1:  Iter=  2 NonCon=     1 RMS=8.18D-10 Max=6.10D-09 NDo=     1
 LinEq1:  Iter=  3 NonCon=     1 RMS=4.33D-10 Max=5.31D-09 NDo=     1
 LinEq1:  Iter=  4 NonCon=     1 RMS=2.23D-10 Max=1.94D-09 NDo=     1
 LinEq1:  Iter=  5 NonCon=     1 RMS=5.71D-11 Max=5.67D-10 NDo=     1
 LinEq1:  Iter=  6 NonCon=     1 RMS=9.17D-12 Max=6.82D-11 NDo=     1
 LinEq1:  Iter=  7 NonCon=     0 RMS=7.95D-13 Max=5.78D-12 NDo=     1
 Linear equations converged to 5.740D-12 5.740D-11 after     7 iterations.
 LinEq1:  Iter=  0 NonCon=     1 RMS=3.42D-08 Max=2.45D-07 NDo=     1
 LinEq1:  Iter=  1 NonCon=     1 RMS=5.52D-09 Max=4.48D-08 NDo=     1
 LinEq1:  Iter=  2 NonCon=     1 RMS=3.03D-09 Max=2.59D-08 NDo=     1
 LinEq1:  Iter=  3 NonCon=     1 RMS=3.56D-10 Max=3.01D-09 NDo=     1
 LinEq1:  Iter=  4 NonCon=     1 RMS=1.56D-10 Max=1.81D-09 NDo=     1
 LinEq1:  Iter=  5 NonCon=     1 RMS=7.91D-11 Max=6.68D-10 NDo=     1
 LinEq1:  Iter=  6 NonCon=     1 RMS=2.95D-11 Max=3.41D-10 NDo=     1
 LinEq1:  Iter=  7 NonCon=     0 RMS=1.01D-11 Max=7.65D-11 NDo=     1
 Linear equations converged to 1.851D-11 1.851D-10 after     7 iterations.
 SCF Done:  E(UB3LYP) =  -100.915090608     a.u. after   32 cycles
            Convg  =    0.4812D-07                   401 Fock formations.
              S**2 =  0.7510                  -V/T =  2.0031
 <Sx>= 0.0000 <Sy>= 0.0000 <Sz>= 0.5000 <S**2>= 0.7510 S= 0.5005
 <L.S>=  0.00000000000    
 Annihilation of the first spin contaminant:
 S**2 before annihilation     0.7510,   after     0.7500
 DoSCS=F DFT=T ScalE2(SS,OS)=  1.000000  1.000000
 Range of M.O.s used for correlation:     1    30
 NBasis=    30 NAE=     6 NBE=     5 NFC=     0 NFV=     0
 NROrb=     30 NOA=     6 NOB=     5 NVA=    24 NVB=    25
 Symmetrizing basis deriv contribution to polar:
 IMax=3 JMax=2 DiffMx= 0.00D+00
 G2DrvN: will do     4 centers at a time, making    1 passes.
 Calling FoFCou, ICntrl=  3107 FMM=F I1Cent=   0 AccDes= 0.00D+00.
 End of G2Drv F.D. properties file   721 does not exist.
 End of G2Drv F.D. properties file   722 does not exist.
 End of G2Drv F.D. properties file   788 does not exist.
          IDoAtm=111
          Differentiating once with respect to electric field.
                with respect to dipole field.
          Differentiating once with respect to nuclear coordinates.
 Keep R1 and R2 ints in memory in canonical form, NReq=7101505.
          There are    12 degrees of freedom in the 1st order CPHF.  IDoFFX=6 NUNeed=     3.
      9 vectors produced by pass  0 Test12= 2.24D-15 8.33D-09 XBig12= 1.65D+01 2.83D+00.
 AX will form     9 AO Fock derivatives at one time.
      9 vectors produced by pass  1 Test12= 2.24D-15 8.33D-09 XBig12= 6.28D-01 5.23D-01.
      9 vectors produced by pass  2 Test12= 2.24D-15 8.33D-09 XBig12= 8.48D-04 1.80D-02.
      8 vectors produced by pass  3 Test12= 2.24D-15 8.33D-09 XBig12= 7.29D-06 1.14D-03.
      6 vectors produced by pass  4 Test12= 2.24D-15 8.33D-09 XBig12= 1.81D-08 7.93D-05.
      4 vectors produced by pass  5 Test12= 2.24D-15 8.33D-09 XBig12= 9.35D-11 3.67D-06.
      2 vectors produced by pass  6 Test12= 2.24D-15 8.33D-09 XBig12= 4.52D-14 1.10D-07.
      1 vectors produced by pass  7 Test12= 2.24D-15 8.33D-09 XBig12= 1.07D-15 2.85D-08.
 InvSVY:  IOpt=1 It=  1 EMax= 8.71D-16
 Solved reduced A of dimension    48 with     9 vectors.
 Isotropic polarizability for W=    0.000000        5.32 Bohr**3.
 End of Minotr F.D. properties file   721 does not exist.
 End of Minotr F.D. properties file   722 does not exist.
 End of Minotr F.D. properties file   788 does not exist.

 **********************************************************************

            Population analysis using the SCF Density.

 **********************************************************************

 Alpha  occ. eigenvalues --  -24.76411  -1.22266  -0.55465  -0.46667  -0.46618
 Alpha  occ. eigenvalues --   -0.39561
 Alpha virt. eigenvalues --    0.01572   0.21121   0.40042   0.85950   0.90825
 Alpha virt. eigenvalues --    0.92793   1.02048   1.08754   1.08757   1.41714
 Alpha virt. eigenvalues --    1.69074   1.69078   2.21720   2.37100   2.64778
 Alpha virt. eigenvalues --    3.64764   3.66966   3.66987   3.74007   3.74049
 Alpha virt. eigenvalues --    5.85470   5.93411   5.94829  66.46670
  Beta  occ. eigenvalues --  -24.73253  -1.13186  -0.43507  -0.43451  -0.39553
  Beta virt. eigenvalues --   -0.26102   0.01584   0.21133   0.40095   0.92325
  Beta virt. eigenvalues --    0.94335   0.95413   1.06084   1.08753   1.08757
  Beta virt. eigenvalues --    1.41721   1.69074   1.69078   2.21733   2.37104
  Beta virt. eigenvalues --    2.64777   3.75642   3.75684   3.76793   3.76806
  Beta virt. eigenvalues --    3.78855   5.96085   5.97505   5.99648  66.49815
          Condensed to atoms (all electrons):
               1          2          3
     1  H    0.621238   0.376439   0.003476
     2  H    0.376439   0.627142  -0.000395
     3  F    0.003476  -0.000395   8.992582
          Atomic-Atomic Spin Densities.
               1          2          3
     1  H   -0.000508   0.000467  -0.000363
     2  H    0.000467  -0.000614   0.000040
     3  F   -0.000363   0.000040   1.000836
 Mulliken charges and spin densities:
               1          2
     1  H   -0.001152  -0.000405
     2  H   -0.003186  -0.000107
     3  F    0.004338   1.000512
 Sum of Mulliken charges =   0.00000   1.00000
 Mulliken charges and spin densities with hydrogens summed into heavy atoms:
               1          2
     3  F    0.000000   1.000000
 APT charges:
               1
     1  H    0.005369
     2  H   -0.001218
     3  F   -0.004151
 Sum of APT charges =   0.00000
 APT charges with hydrogens summed into heavy atoms:
               1
     3  F    0.000000
 Electronic spatial extent (au):  <R**2>=            389.4670
 Charge=              0.0000 electrons
 Dipole moment (field-independent basis, Debye):
    X=              0.0559    Y=              0.0000    Z=             -0.0000  Tot=              0.0559
 Quadrupole moment (field-independent basis, Debye-Ang):
   XX=             -6.2183   YY=             -6.7838   ZZ=             -6.7840
   XY=              0.0000   XZ=             -0.0000   YZ=             -0.4321
 Traceless Quadrupole moment (field-independent basis, Debye-Ang):
   XX=              0.3771   YY=             -0.1885   ZZ=             -0.1886
   XY=              0.0000   XZ=             -0.0000   YZ=             -0.4321
 Octapole moment (field-independent basis, Debye-Ang**2):
  XXX=            -46.1447  YYY=              0.0000  ZZZ=             -0.0000  XYY=            -13.8314
  XXY=              0.0000  XXZ=             -0.0000  XZZ=            -13.8320  YZZ=              0.0000
  YYZ=             -0.0000  XYZ=             -1.4690
 Hexadecapole moment (field-independent basis, Debye-Ang**3):
 XXXX=           -341.0422 YYYY=             -5.0530 ZZZZ=             -5.0532 XXXY=              0.0000
 XXXZ=             -0.0000 YYYX=              0.0000 YYYZ=             -0.1930 ZZZX=             -0.0000
 ZZZY=             -0.1930 XXYY=            -53.4707 XXZZ=            -53.4729 YYZZ=             -1.6844
 XXYZ=             -5.0589 YYXZ=             -0.0000 ZZXY=              0.0000
 N-N= 3.052641250354D+00 E-N=-2.471327605412D+02  KE= 1.005991981586D+02
  Exact polarizability:      11.400       0.000       2.275       0.000      -0.232       2.275
 Approx polarizability:      14.500      -0.000       2.392       0.000      -0.291       2.392
                          Isotropic Fermi Contact Couplings
        Atom                 a.u.       MegaHertz       Gauss      10(-4) cm-1
     1  H(1)               0.00001       0.06053       0.02160       0.02019
     2  H(1)              -0.00003      -0.13607      -0.04855      -0.04539
     3  F(19)              0.03117     131.15970      46.80104      43.75017
 --------------------------------------------------------
       Center         ----  Spin Dipole Couplings  ----
                      3XX-RR        3YY-RR        3ZZ-RR
 --------------------------------------------------------
     1   Atom        0.007183     -0.003591     -0.003591
     2   Atom        0.003499     -0.001750     -0.001750
     3   Atom       -3.145426      1.573739      1.571687
 --------------------------------------------------------
                        XY            XZ            YZ
 --------------------------------------------------------
     1   Atom        0.000000     -0.000000     -0.000083
     2   Atom        0.000000     -0.000000     -0.000024
     3   Atom       -0.000000      0.000000     -4.724161
 --------------------------------------------------------


 ---------------------------------------------------------------------------------
              Anisotropic Spin Dipole Couplings in Principal Axis System
 ---------------------------------------------------------------------------------

       Atom             a.u.   MegaHertz   Gauss  10(-4) cm-1        Axes

              Baa    -0.0037    -1.961    -0.700    -0.654 -0.0000  0.7070  0.7072
     1 H(1)   Bbb    -0.0035    -1.872    -0.668    -0.624 -0.0000  0.7072 -0.7070
              Bcc     0.0072     3.832     1.367     1.278  1.0000  0.0000 -0.0000
 
              Baa    -0.0018    -0.947    -0.338    -0.316 -0.0000  0.7070  0.7072
     2 H(1)   Bbb    -0.0017    -0.921    -0.329    -0.307 -0.0000  0.7072 -0.7070
              Bcc     0.0035     1.867     0.666     0.623  1.0000  0.0000 -0.0000
 
              Baa    -3.1514 -1582.738  -564.760  -527.945 -0.0000  0.7070  0.7072
     3 F(19)  Bbb    -3.1454 -1579.713  -563.681  -526.936  1.0000  0.0000  0.0000
              Bcc     6.2969  3162.452  1128.441  1054.880 -0.0000  0.7072 -0.7070
 

 ---------------------------------------------------------------------------------

 Calling FoFJK, ICntrl=    100127 FMM=F ISym2X=0 I1Cent= 0 IOpClX= 1 NMat=1 NMatS=1 NMatT=0.
 Full mass-weighted force constant matrix:
 Low frequencies ---   -0.0015    0.0016    0.0018   12.0086   31.0010   34.2351
 Low frequencies --- 1530.5261 1530.5621 2200.4379
 Diagonal vibrational polarizability:
       33.6733582       0.0000001       0.0000001
 Harmonic frequencies (cm**-1), IR intensities (KM/Mole), Raman scattering
 activities (A**4/AMU), depolarization ratios for plane and unpolarized
 incident light, reduced masses (AMU), force constants (mDyne/A),
 and normal coordinates:
                      1                      2                      3
                      A                      A                      A
 Frequencies --     12.0086              1518.1479              1518.2106
 Red. masses --      1.1085                 1.0093                 1.0093
 Frc consts  --      0.0001                 1.3706                 1.3707
 IR Inten    --      0.1804                 0.0000                 0.0000
  Atom  AN      X      Y      Z        X      Y      Z        X      Y      Z
     1   1     0.70  -0.00   0.00    -0.00   0.56   0.56    -0.00   0.56  -0.56
     2   1     0.71   0.00  -0.00     0.00  -0.44  -0.44     0.00  -0.44   0.44
     3   9    -0.07   0.00  -0.00    -0.00  -0.01  -0.01    -0.00  -0.01   0.01
                      4
                      A
 Frequencies --   2200.4379
 Red. masses --      1.0078
 Frc consts  --      2.8751
 IR Inten    --      0.1771
  Atom  AN      X      Y      Z
     1   1     0.71   0.00  -0.00
     2   1    -0.71  -0.00   0.00
     3   9    -0.00  -0.00   0.00

 -------------------
 - Thermochemistry -
 -------------------
 Temperature   298.150 Kelvin.  Pressure   1.00000 Atm.
 Atom     1 has atomic number  1 and mass   1.00783
 Atom     2 has atomic number  1 and mass   1.00783
 Atom     3 has atomic number  9 and mass  18.99840
 Molecular mass:    21.01405 amu.
 Principal axes and moments of inertia in atomic units:
                           1         2         3
     Eigenvalues --     0.00000  99.33957  99.33957
           X            1.00000  -0.00000   0.00000
           Y            0.00000   1.00000   0.00000
           Z            0.00000   0.00000   1.00000
 This molecule is a prolate symmetric top.
 Rotational symmetry number  1.
 Rotational temperature (Kelvin)      0.87190
 Rotational constant (GHZ):          18.167394
 Zero-point vibrational energy      31394.8 (Joules/Mol)
                                    7.50354 (Kcal/Mol)
 Warning -- explicit consideration of   1 degrees of freedom as
           vibrations may cause significant error
 Vibrational temperatures:     17.28  2184.28  2184.37  3165.94
          (Kelvin)
 
 Zero-point correction=                           0.011958 (Hartree/Particle)
 Thermal correction to Energy=                    0.015245
 Thermal correction to Enthalpy=                  0.016189
 Thermal correction to Gibbs Free Energy=        -0.011225
 Sum of electronic and zero-point Energies=           -100.903133
 Sum of electronic and thermal Energies=              -100.899846
 Sum of electronic and thermal Enthalpies=            -100.898902
 Sum of electronic and thermal Free Energies=         -100.926316
 
                     E (Thermal)             CV                S
                      KCal/Mol        Cal/Mol-Kelvin    Cal/Mol-Kelvin
 Total                    9.566              7.101             57.697
 Electronic               0.000              0.000              1.377
 Translational            0.889              2.981             35.068
 Rotational               0.592              1.987             13.582
 Vibrational              8.085              2.133              7.670
 Vibration     1          0.593              1.987              7.647
                       Q            Log10(Q)             Ln(Q)
 Total Bot       0.145592D+06          5.163137         11.888562
 Total V=0       0.460546D+11         10.663273         24.553093
 Vib (Bot)       0.562237D-04         -4.250081         -9.786173
 Vib (Bot)    1  0.172540D+02          1.236889          2.848042
 Vib (V=0)       0.177850D+02          1.250055          2.878358
 Vib (V=0)    1  0.177612D+02          1.249472          2.877017
 Electronic      0.200000D+01          0.301030          0.693147
 Translational   0.378633D+07          6.578219         15.146908
 Rotational      0.341955D+03          2.533969          5.834680
 -------------------------------------------------------------------
 Center     Atomic                   Forces (Hartrees/Bohr)
 Number     Number              X              Y              Z
 -------------------------------------------------------------------
      1        1          -0.079327552   -0.000000000   -0.000000000
      2        1           0.079796626   -0.000000000    0.000000000
      3        9          -0.000469073    0.000000000   -0.000000000
 -------------------------------------------------------------------
 Cartesian Forces:  Max     0.079796626 RMS     0.037506417

 GradGradGradGradGradGradGradGradGradGradGradGradGradGradGradGradGradGrad
 Berny optimization.
 Search for a local minimum.
 Step number   1 out of a maximum of    2
 All quantities printed in internal units (Hartrees-Bohrs-Radians)
 Second derivative matrix not updated -- analytic derivatives used.
 The second derivative matrix:
                          X1        Y1        Z1        X2        Y2
           X1           0.09238
           Y1           0.00000   0.04477
           Z1          -0.00000  -0.00001   0.04477
           X2          -0.09233  -0.00000   0.00000   0.09229
           Y2          -0.00000  -0.04465  -0.00000   0.00000   0.04461
           Z2           0.00000  -0.00000  -0.04465  -0.00000   0.00000
           X3          -0.00005  -0.00000   0.00000   0.00004   0.00000
           Y3          -0.00000  -0.00012   0.00001   0.00000   0.00005
           Z3           0.00000   0.00001  -0.00012  -0.00000  -0.00000
                          Z2        X3        Y3        Z3
           Z2           0.04461
           X3          -0.00000   0.00001
           Y3          -0.00000   0.00000   0.00007
           Z3           0.00005  -0.00000  -0.00001   0.00007
 ITU=  0
     Eigenvalues ---    0.00001   0.08776   0.08777   0.18467
 Quadratic step=4.806D+01 exceeds max=3.000D-01 adjusted using Lamda=-1.903D-01.
 Angle between NR and scaled steps=  88.73 degrees.
 Angle between quadratic step and forces=   0.30 degrees.
 Linear search not attempted -- first point.
 B after Tr=    -0.000779    0.000000    0.000000
         Rot=    0.748106    0.663579    0.000000    0.000000 Ang=  83.15 deg.
 Variable       Old X    -DE/DX   Delta X   Delta X   Delta X     New X
                                 (Linear)    (Quad)   (Total)
    X1        0.00000  -0.07933   0.00000  -0.21044  -0.21122  -0.21122
    Y1        0.00000  -0.00000   0.00000   0.00000  -0.00000  -0.00000
    Z1        0.00000  -0.00000   0.00000  -0.00000  -0.00000  -0.00000
    X2       -1.79524   0.07980   0.00000   0.21395   0.21317  -1.58207
    Y2        0.00000  -0.00000   0.00000  -0.00000   0.00000   0.00000
    Z2        0.00000   0.00000   0.00000   0.00000   0.00000   0.00000
    X3        6.42507  -0.00047   0.00000  -0.00117  -0.00195   6.42312
    Y3        0.00000   0.00000   0.00000  -0.00000   0.00000   0.00000
    Z3        0.00000  -0.00000   0.00000   0.00000   0.00000   0.00000
         Item               Value     Threshold  Converged?
 Maximum Force            0.079797     0.000450     NO 
 RMS     Force            0.037506     0.000300     NO 
 Maximum Displacement     0.213169     0.001800     NO 
 RMS     Displacement     0.100033     0.001200     NO 
 Predicted change in Energy=-2.545180D-02
 GradGradGradGradGradGradGradGradGradGradGradGradGradGradGradGradGradGrad


 ----------------------------------------------------------------------

 Electric dipole moment (input orientation):
 (Debye = 10**-18 statcoulomb cm , SI units = C m)
                  (au)            (Debye)         (10**-30 SI)
   Tot        0.219803D-01      0.558685D-01      0.186357D+00
   x          0.219803D-01      0.558685D-01      0.186357D+00
   y          0.000000D+00      0.000000D+00      0.000000D+00
   z          0.000000D+00      0.000000D+00      0.000000D+00

 Dipole polarizability, Alpha (input orientation).
 (esu units = cm**3 , SI units = C**2 m**2 J**-1)
 Alpha(0;0):
               (au)            (10**-24 esu)      (10**-40 SI)
   iso        0.531673D+01      0.787858D+00      0.876610D+00
   aniso      0.913311D+01      0.135339D+01      0.150585D+01
   xx         0.113996D+02      0.168924D+01      0.187954D+01
   yx         0.000000D+00      0.000000D+00      0.000000D+00
   yy         0.227535D+01      0.337172D+00      0.375155D+00
   zx         0.000000D+00      0.000000D+00      0.000000D+00
   zy        -0.231800D+00     -0.343492D-01     -0.382186D-01
   zz         0.227525D+01      0.337157D+00      0.375138D+00

 ----------------------------------------------------------------------

 Dipole orientation:
     1         -0.00000000          0.00000000          0.00000000
     1          0.00000000          0.00000000         -1.79523982
     9         -0.00000000         -0.00000000          6.42506882

 Electric dipole moment (dipole orientation):
 (Debye = 10**-18 statcoulomb cm , SI units = C m)
                  (au)            (Debye)         (10**-30 SI)
   Tot        0.219803D-01      0.558685D-01      0.186357D+00
   x          0.000000D+00      0.000000D+00      0.000000D+00
   y          0.000000D+00      0.000000D+00      0.000000D+00
   z          0.219803D-01      0.558685D-01      0.186357D+00

 Dipole polarizability, Alpha (dipole orientation).
 (esu units = cm**3 , SI units = C**2 m**2 J**-1)
 Alpha(0;0):
               (au)            (10**-24 esu)      (10**-40 SI)
   iso        0.531673D+01      0.787858D+00      0.876610D+00
   aniso      0.913311D+01      0.135339D+01      0.150585D+01
   xx         0.227525D+01      0.337157D+00      0.375138D+00
   yx         0.231800D+00      0.343492D-01      0.382186D-01
   yy         0.227535D+01      0.337172D+00      0.375155D+00
   zx         0.000000D+00      0.000000D+00      0.000000D+00
   zy         0.000000D+00      0.000000D+00      0.000000D+00
   zz         0.113996D+02      0.168924D+01      0.187954D+01

 ----------------------------------------------------------------------
 Unable to Open any file for archive entry.
 1\1\GINC-DESKTOP-B3RIHJD\Freq\UB3LYP\6-311G(d,p)\F1H2(2)\GARYX\22-Aug-
 2025\0\\# sp b3lyp/6-311g** Force nosymm scf=(qc)\\Title Card Required
 \\0,2\H,0.,0.,0.\H,-0.95,0.,0.\F,3.4,0.,0.\\Version=ES64L-G16RevC.01\H
 F=-100.9150906\S2=0.750967\S2-1=0.\S2A=0.750001\RMSD=2.934e-09\RMSF=3.
 751e-02\ZeroPoint=0.0119577\Thermal=0.0152446\ETot=-100.899846\HTot=-1
 00.8989019\GTot=-100.9263156\Dipole=0.0219803,0.,0.\DipoleDeriv=0.0187
 497,0.,0.,0.,-0.0013213,0.0000329,0.,0.0000327,-0.0013215,-0.0003795,0
 .,0.,0.,-0.0016366,-0.0000279,0.,-0.0000278,-0.0016366,-0.0183701,0.,0
 .,0.,0.0029579,-0.000005,0.,-0.0000049,0.002958\Polar=11.3995841,0.,2.
 2753504,0.,-0.2317998,2.2752498\Quadrupole=0.2803666,-0.1401136,-0.140
 2531,0.,0.,-0.3212215\PG=C*V [C*(H1H1F1)]\NImag=0\\0.09238399,0.,0.044
 77436,0.,-0.00000854,0.04477435,-0.09233217,0.,0.,0.09229032,0.,-0.044
 65383,-0.00000078,0.,0.04460700,0.,-0.00000078,-0.04465382,0.,0.000002
 80,0.04460700,-0.00005182,0.,0.,0.00004185,0.,0.,0.00000997,0.,-0.0001
 2054,0.00000932,0.,0.00004683,-0.00000202,0.,0.00007371,0.,0.00000932,
 -0.00012053,0.,-0.00000202,0.00004682,0.,-0.00000730,0.00007371\\0.079
 32755,0.,0.,-0.07979663,0.,0.,0.00046907,0.,0.\\\@
 The archive entry for this job was punched.


 DO NOT LET SELFISH MEN OR GREEDY INTERESTS SKIN YOUR COUNTRY OF ITS
 BEAUTY, ITS RICHES, OR ITS ROMANCE. -- THEODORE ROOSEVELT
 Job cpu time:       0 days  0 hours  1 minutes  1.6 seconds.
 Elapsed time:       0 days  0 hours  0 minutes  8.2 seconds.
 File lengths (MBytes):  RWF=      6 Int=      0 D2E=      0 Chk=      1 Scr=      1
 Normal termination of Gaussian 16 at Fri Aug 22 21:08:47 2025.
