 Entering Gaussian System, Link 0=g16
 Initial command:
 /home/garyx/gaussian/g16/l1.exe "/tmp/gaussian_scratch/Gau-899969.inp" -scrdir="/tmp/gaussian_scratch/"
 Entering Link 1 = /home/garyx/gaussian/g16/l1.exe PID=    899971.
  
 Copyright (c) 1988-2019, Gaussian, Inc.  All Rights Reserved.
  
 This is part of the Gaussian(R) 16 program.  It is based on
 the Gaussian(R) 09 system (copyright 2009, Gaussian, Inc.),
 the Gaussian(R) 03 system (copyright 2003, Gaussian, Inc.),
 the Gaussian(R) 98 system (copyright 1998, Gaussian, Inc.),
 the Gaussian(R) 94 system (copyright 1995, Gaussian, Inc.),
 the Gaussian 92(TM) system (copyright 1992, Gaussian, Inc.),
 the Gaussian 90(TM) system (copyright 1990, Gaussian, Inc.),
 the Gaussian 88(TM) system (copyright 1988, Gaussian, Inc.),
 the Gaussian 86(TM) system (copyright 1986, Carnegie Mellon
 University), and the Gaussian 82(TM) system (copyright 1983,
 Carnegie Mellon University). Gaussian is a federally registered
 trademark of Gaussian, Inc.
  
 This software contains proprietary and confidential information,
 including trade secrets, belonging to Gaussian, Inc.
  
 This software is provided under written license and may be
 used, copied, transmitted, or stored only in accord with that
 written license.
  
 The following legend is applicable only to US Government
 contracts under FAR:
  
                    RESTRICTED RIGHTS LEGEND
  
 Use, reproduction and disclosure by the US Government is
 subject to restrictions as set forth in subparagraphs (a)
 and (c) of the Commercial Computer Software - Restricted
 Rights clause in FAR 52.227-19.
  
 Gaussian, Inc.
 340 Quinnipiac St., Bldg. 40, Wallingford CT 06492
  
  
 ---------------------------------------------------------------
 Warning -- This program may not be used in any manner that
 competes with the business of Gaussian, Inc. or will provide
 assistance to any competitor of Gaussian, Inc.  The licensee
 of this program is prohibited from giving any competitor of
 Gaussian, Inc. access to this program.  By using this program,
 the user acknowledges that Gaussian, Inc. is engaged in the
 business of creating and licensing software in the field of
 computational chemistry and represents and warrants to the
 licensee that it is not a competitor of Gaussian, Inc. and that
 it will not use this program in any manner prohibited above.
 ---------------------------------------------------------------
  

 Cite this work as:
 Gaussian 16, Revision C.01,
 M. J. Frisch, G. W. Trucks, H. B. Schlegel, G. E. Scuseria, 
 M. A. Robb, J. R. Cheeseman, G. Scalmani, V. Barone, 
 G. A. Petersson, H. Nakatsuji, X. Li, M. Caricato, A. V. Marenich, 
 J. Bloino, B. G. Janesko, R. Gomperts, B. Mennucci, H. P. Hratchian, 
 J. V. Ortiz, A. F. Izmaylov, J. L. Sonnenberg, D. Williams-Young, 
 F. Ding, F. Lipparini, F. Egidi, J. Goings, B. Peng, A. Petrone, 
 T. Henderson, D. Ranasinghe, V. G. Zakrzewski, J. Gao, N. Rega, 
 G. Zheng, W. Liang, M. Hada, M. Ehara, K. Toyota, R. Fukuda, 
 J. Hasegawa, M. Ishida, T. Nakajima, Y. Honda, O. Kitao, H. Nakai, 
 T. Vreven, K. Throssell, J. A. Montgomery, Jr., J. E. Peralta, 
 F. Ogliaro, M. J. Bearpark, J. J. Heyd, E. N. Brothers, K. N. Kudin, 
 V. N. Staroverov, T. A. Keith, R. Kobayashi, J. Normand, 
 K. Raghavachari, A. P. Rendell, J. C. Burant, S. S. Iyengar, 
 J. Tomasi, M. Cossi, J. M. Millam, M. Klene, C. Adamo, R. Cammi, 
 J. W. Ochterski, R. L. Martin, K. Morokuma, O. Farkas, 
 J. B. Foresman, and D. J. Fox, Gaussian, Inc., Wallingford CT, 2019.
 
 ******************************************
 Gaussian 16:  ES64L-G16RevC.01  3-Jul-2019
                22-Aug-2025 
 ******************************************
 %mem=10GB
 %nprocs=8
 Will use up to    8 processors via shared memory.
 -----------------------------------------
 # sp b3lyp/6-311g** Force nosymm scf=(qc)
 -----------------------------------------
 1/10=4,30=1,38=1/1,3;
 2/12=2,15=1,17=6,18=5,40=1/2;
 3/5=4,6=6,7=101,11=2,25=1,30=1,71=2,74=-5,140=1/1,2,3;
 4//1;
 5/5=2,8=3,38=5,98=1/8;
 8/6=4,10=90,11=11/1;
 11/6=1,8=1,9=11,15=111,16=1,31=1/1,2,10;
 10/6=1,31=1/2;
 6/7=2,8=2,9=2,10=2,28=1/1;
 7/8=1,10=1,25=1,30=1/1,2,3,16;
 1/10=4,30=1/3;
 99//99;
 -------------------
 Title Card Required
 -------------------
 Symbolic Z-matrix:
 Charge =  0 Multiplicity = 2
 H                     0.        0.        0. 
 H                    -1.45      0.        0. 
 F                     3.35      0.        0. 
 

 GradGradGradGradGradGradGradGradGradGradGradGradGradGradGradGradGradGrad
 Berny optimization.
 Initialization pass.
 Trust Radius=3.00D-01 FncErr=1.00D-07 GrdErr=1.00D-07 EigMax=2.50D+02 EigMin=1.00D-04
 Number of steps in this run=      2 maximum allowed number of steps=      2.
 GradGradGradGradGradGradGradGradGradGradGradGradGradGradGradGradGradGrad

                          Input orientation:                          
 ---------------------------------------------------------------------
 Center     Atomic      Atomic             Coordinates (Angstroms)
 Number     Number       Type             X           Y           Z
 ---------------------------------------------------------------------
      1          1           0        0.000000    0.000000    0.000000
      2          1           0       -1.450000    0.000000    0.000000
      3          9           0        3.350000    0.000000    0.000000
 ---------------------------------------------------------------------
                    Distance matrix (angstroms):
                    1          2          3
     1  H    0.000000
     2  H    1.450000   0.000000
     3  F    3.350000   4.800000   0.000000
 Symmetry turned off by external request.
 Stoichiometry    FH2(2)
 Framework group  C*V[C*(HHF)]
 Deg. of freedom     2
 Full point group                 C*V     NOp   4
 Rotational constants (GHZ):           0.0000000          16.1359408          16.1359408
 Standard basis: 6-311G(d,p) (5D, 7F)
    30 basis functions,    48 primitive gaussians,    31 cartesian basis functions
     6 alpha electrons        5 beta electrons
       nuclear repulsion energy         2.7788271900 Hartrees.
 NAtoms=    3 NActive=    3 NUniq=    3 SFac= 1.00D+00 NAtFMM=   60 NAOKFM=F Big=F
 Integral buffers will be    131072 words long.
 Raffenetti 2 integral format.
 Two-electron integral symmetry is turned off.
 One-electron integrals computed using PRISM.
 NBasis=    30 RedAO= T EigKep=  6.67D-02  NBF=    30
 NBsUse=    30 1.00D-06 EigRej= -1.00D+00 NBFU=    30
 ExpMin= 1.03D-01 ExpMax= 1.14D+04 ExpMxC= 1.72D+03 IAcc=3 IRadAn=         5 AccDes= 0.00D+00
 Harris functional with IExCor=  402 and IRadAn=       5 diagonalized for initial guess.
 HarFok:  IExCor=  402 AccDes= 0.00D+00 IRadAn=         5 IDoV= 1 UseB2=F ITyADJ=14
 ICtDFT=  3500011 ScaDFX=  1.000000  1.000000  1.000000  1.000000
 FoFCou: FMM=F IPFlag=           0 FMFlag=      100000 FMFlg1=           0
         NFxFlg=           0 DoJE=T BraDBF=F KetDBF=T FulRan=T
         wScrn=  0.000000 ICntrl=       500 IOpCl=  0 I1Cent=   200000004 NGrid=           0
         NMat0=    1 NMatS0=      1 NMatT0=    0 NMatD0=    1 NMtDS0=    0 NMtDT0=    0
 Symmetry not used in FoFCou.
 Initial guess <Sx>= 0.0000 <Sy>= 0.0000 <Sz>= 0.5000 <S**2>= 0.7500 S= 0.5000
 Keep R1 and R2 ints in memory in canonical form, NReq=7127049.
 Gradient too large for Newton-Raphson -- use scaled steepest descent instead.
  Beta Gap=    -0.668 HL deriv= 1.11D-15 Rot set to   3.53D-01
 Gradient too large for Newton-Raphson -- use scaled steepest descent instead.
     Accept linear search using points  4 and  5.
 Gradient too large for Newton-Raphson -- use scaled steepest descent instead.
 Gradient too large for Newton-Raphson -- use scaled steepest descent instead.
     Accept linear search using points  1 and  2.
 Gradient too large for Newton-Raphson -- use scaled steepest descent instead.
     Accept linear search using points  1 and  2.
 Gradient too large for Newton-Raphson -- use scaled steepest descent instead.
     Minimum is close to point  3 DX=  1.11D-01 DF= -3.15D-04 DXR=  8.44D-02 DFR=  7.14D-03 which will be used.
 Gradient too large for Newton-Raphson -- use scaled steepest descent instead.
 Gradient too large for Newton-Raphson -- use scaled steepest descent instead.
     Accept linear search using points  1 and  2.
 Gradient too large for Newton-Raphson -- use scaled steepest descent instead.
 Gradient too large for Newton-Raphson -- use scaled steepest descent instead.
     Accept linear search using points  1 and  2.
 LinEq1:  Iter=  0 NonCon=     1 RMS=2.70D-03 Max=4.25D-02 NDo=     1
 AX will form     1 AO Fock derivatives at one time.
 LinEq1:  Iter=  1 NonCon=     1 RMS=5.51D-04 Max=7.71D-03 NDo=     1
 LinEq1:  Iter=  2 NonCon=     1 RMS=3.75D-04 Max=5.07D-03 NDo=     1
 LinEq1:  Iter=  3 NonCon=     1 RMS=1.37D-04 Max=1.02D-03 NDo=     1
 LinEq1:  Iter=  4 NonCon=     1 RMS=1.81D-05 Max=1.57D-04 NDo=     1
 LinEq1:  Iter=  5 NonCon=     1 RMS=2.79D-06 Max=4.01D-05 NDo=     1
 LinEq1:  Iter=  6 NonCon=     1 RMS=2.10D-06 Max=1.49D-05 NDo=     1
 LinEq1:  Iter=  7 NonCon=     1 RMS=6.35D-07 Max=4.04D-06 NDo=     1
 LinEq1:  Iter=  8 NonCon=     1 RMS=1.29D-07 Max=1.64D-06 NDo=     1
 LinEq1:  Iter=  9 NonCon=     1 RMS=2.22D-08 Max=1.85D-07 NDo=     1
 LinEq1:  Iter= 10 NonCon=     1 RMS=2.08D-09 Max=1.31D-08 NDo=     1
 LinEq1:  Iter= 11 NonCon=     0 RMS=2.29D-10 Max=1.16D-09 NDo=     1
 Linear equations converged to 1.640D-09 1.640D-08 after    11 iterations.
 LinEq1:  Iter=  0 NonCon=     1 RMS=2.17D-03 Max=3.41D-02 NDo=     1
 LinEq1:  Iter=  1 NonCon=     1 RMS=4.52D-04 Max=6.40D-03 NDo=     1
 LinEq1:  Iter=  2 NonCon=     1 RMS=3.29D-04 Max=4.52D-03 NDo=     1
 LinEq1:  Iter=  3 NonCon=     1 RMS=1.14D-04 Max=8.74D-04 NDo=     1
 LinEq1:  Iter=  4 NonCon=     1 RMS=1.55D-05 Max=1.15D-04 NDo=     1
 LinEq1:  Iter=  5 NonCon=     1 RMS=6.85D-06 Max=6.69D-05 NDo=     1
 LinEq1:  Iter=  6 NonCon=     1 RMS=6.56D-06 Max=7.91D-05 NDo=     1
 LinEq1:  Iter=  7 NonCon=     1 RMS=5.15D-07 Max=3.12D-06 NDo=     1
 LinEq1:  Iter=  8 NonCon=     1 RMS=9.64D-08 Max=1.21D-06 NDo=     1
 LinEq1:  Iter=  9 NonCon=     1 RMS=1.67D-08 Max=1.22D-07 NDo=     1
 LinEq1:  Iter= 10 NonCon=     0 RMS=1.50D-09 Max=9.91D-09 NDo=     1
 Linear equations converged to 1.640D-09 1.640D-08 after    10 iterations.
     Accept linear search using points  1 and  2.
 Gradient too large for Newton-Raphson -- use scaled steepest descent instead.
     Accept linear search using points  2 and  3.
 LinEq1:  Iter=  0 NonCon=     1 RMS=2.79D-04 Max=4.24D-03 NDo=     1
 LinEq1:  Iter=  1 NonCon=     1 RMS=1.15D-04 Max=1.56D-03 NDo=     1
 LinEq1:  Iter=  2 NonCon=     1 RMS=8.85D-05 Max=1.25D-03 NDo=     1
 LinEq1:  Iter=  3 NonCon=     1 RMS=3.37D-05 Max=2.26D-04 NDo=     1
 LinEq1:  Iter=  4 NonCon=     1 RMS=6.88D-06 Max=5.73D-05 NDo=     1
 LinEq1:  Iter=  5 NonCon=     1 RMS=1.34D-06 Max=1.61D-05 NDo=     1
 LinEq1:  Iter=  6 NonCon=     1 RMS=6.54D-07 Max=6.87D-06 NDo=     1
 LinEq1:  Iter=  7 NonCon=     1 RMS=6.43D-08 Max=4.18D-07 NDo=     1
 LinEq1:  Iter=  8 NonCon=     1 RMS=6.35D-09 Max=5.36D-08 NDo=     1
 LinEq1:  Iter=  9 NonCon=     0 RMS=7.38D-10 Max=7.09D-09 NDo=     1
 Linear equations converged to 1.640D-09 1.640D-08 after     9 iterations.
     Accept linear search using points  1 and  2.
     Minimum is close to point  2 DX= -4.12D-03 DF= -2.37D-10 DXR=  4.13D-03 DFR=  1.73D-05 which will be used.
 LinEq1:  Iter=  0 NonCon=     1 RMS=1.58D-05 Max=1.64D-04 NDo=     1
 LinEq1:  Iter=  1 NonCon=     1 RMS=4.23D-06 Max=3.18D-05 NDo=     1
 LinEq1:  Iter=  2 NonCon=     1 RMS=2.94D-06 Max=3.40D-05 NDo=     1
 LinEq1:  Iter=  3 NonCon=     1 RMS=1.89D-06 Max=2.23D-05 NDo=     1
 LinEq1:  Iter=  4 NonCon=     1 RMS=1.12D-06 Max=1.13D-05 NDo=     1
 LinEq1:  Iter=  5 NonCon=     1 RMS=5.32D-07 Max=4.02D-06 NDo=     1
 LinEq1:  Iter=  6 NonCon=     1 RMS=1.24D-07 Max=9.13D-07 NDo=     1
 LinEq1:  Iter=  7 NonCon=     1 RMS=4.55D-08 Max=6.40D-07 NDo=     1
 LinEq1:  Iter=  8 NonCon=     1 RMS=1.48D-08 Max=8.83D-08 NDo=     1
 LinEq1:  Iter=  9 NonCon=     1 RMS=1.64D-09 Max=8.49D-09 NDo=     1
 LinEq1:  Iter= 10 NonCon=     0 RMS=2.58D-10 Max=1.88D-09 NDo=     1
 Linear equations converged to 1.640D-09 1.640D-08 after    10 iterations.
     Accept linear search using points  1 and  2.
     Minimum is close to point  2 DX= -1.10D-02 DF= -1.32D-11 DXR=  1.11D-02 DFR=  1.23D-04 which will be used.
 LinEq1:  Iter=  0 NonCon=     1 RMS=6.21D-07 Max=4.54D-06 NDo=     1
 LinEq1:  Iter=  1 NonCon=     1 RMS=1.17D-07 Max=9.12D-07 NDo=     1
 LinEq1:  Iter=  2 NonCon=     1 RMS=3.58D-08 Max=4.91D-07 NDo=     1
 LinEq1:  Iter=  3 NonCon=     1 RMS=1.84D-08 Max=1.29D-07 NDo=     1
 LinEq1:  Iter=  4 NonCon=     1 RMS=9.50D-09 Max=6.06D-08 NDo=     1
 LinEq1:  Iter=  5 NonCon=     1 RMS=1.81D-09 Max=1.77D-08 NDo=     1
 LinEq1:  Iter=  6 NonCon=     1 RMS=4.03D-10 Max=4.04D-09 NDo=     1
 LinEq1:  Iter=  7 NonCon=     1 RMS=2.81D-10 Max=4.25D-09 NDo=     1
 LinEq1:  Iter=  8 NonCon=     0 RMS=2.35D-10 Max=2.89D-09 NDo=     1
 Linear equations converged to 3.061D-10 3.061D-09 after     8 iterations.
 LinEq1:  Iter=  0 NonCon=     1 RMS=7.98D-08 Max=9.83D-07 NDo=     1
 LinEq1:  Iter=  1 NonCon=     1 RMS=7.24D-08 Max=1.12D-06 NDo=     1
 LinEq1:  Iter=  2 NonCon=     1 RMS=4.73D-08 Max=4.75D-07 NDo=     1
 LinEq1:  Iter=  3 NonCon=     1 RMS=1.79D-08 Max=1.88D-07 NDo=     1
 LinEq1:  Iter=  4 NonCon=     1 RMS=3.57D-09 Max=3.35D-08 NDo=     1
 LinEq1:  Iter=  5 NonCon=     1 RMS=1.08D-09 Max=7.97D-09 NDo=     1
 LinEq1:  Iter=  6 NonCon=     1 RMS=6.48D-10 Max=5.78D-09 NDo=     1
 LinEq1:  Iter=  7 NonCon=     1 RMS=3.30D-10 Max=2.55D-09 NDo=     1
 LinEq1:  Iter=  8 NonCon=     1 RMS=5.68D-11 Max=5.52D-10 NDo=     1
 LinEq1:  Iter=  9 NonCon=     0 RMS=4.50D-12 Max=3.67D-11 NDo=     1
 Linear equations converged to 2.112D-11 2.112D-10 after     9 iterations.
 LinEq1:  Iter=  0 NonCon=     1 RMS=2.15D-08 Max=1.75D-07 NDo=     1
 LinEq1:  Iter=  1 NonCon=     1 RMS=3.82D-09 Max=3.29D-08 NDo=     1
 LinEq1:  Iter=  2 NonCon=     1 RMS=2.10D-09 Max=2.26D-08 NDo=     1
 LinEq1:  Iter=  3 NonCon=     1 RMS=6.77D-10 Max=3.66D-09 NDo=     1
 LinEq1:  Iter=  4 NonCon=     1 RMS=2.90D-10 Max=2.49D-09 NDo=     1
 LinEq1:  Iter=  5 NonCon=     1 RMS=1.34D-10 Max=1.05D-09 NDo=     1
 LinEq1:  Iter=  6 NonCon=     1 RMS=5.23D-11 Max=3.57D-10 NDo=     1
 LinEq1:  Iter=  7 NonCon=     1 RMS=2.35D-11 Max=1.60D-10 NDo=     1
 LinEq1:  Iter=  8 NonCon=     1 RMS=1.14D-11 Max=1.01D-10 NDo=     1
 LinEq1:  Iter=  9 NonCon=     0 RMS=3.30D-12 Max=3.11D-11 NDo=     1
 Linear equations converged to 9.116D-12 9.116D-11 after     9 iterations.
 LinEq1:  Iter=  0 NonCon=     1 RMS=1.46D-08 Max=1.52D-07 NDo=     1
 LinEq1:  Iter=  1 NonCon=     1 RMS=4.96D-09 Max=4.28D-08 NDo=     1
 LinEq1:  Iter=  2 NonCon=     1 RMS=2.58D-09 Max=2.20D-08 NDo=     1
 LinEq1:  Iter=  3 NonCon=     1 RMS=9.50D-10 Max=6.00D-09 NDo=     1
 LinEq1:  Iter=  4 NonCon=     1 RMS=4.35D-10 Max=4.16D-09 NDo=     1
 LinEq1:  Iter=  5 NonCon=     1 RMS=1.53D-10 Max=1.86D-09 NDo=     1
 LinEq1:  Iter=  6 NonCon=     1 RMS=1.28D-10 Max=1.87D-09 NDo=     1
 LinEq1:  Iter=  7 NonCon=     1 RMS=9.02D-11 Max=8.41D-10 NDo=     1
 LinEq1:  Iter=  8 NonCon=     1 RMS=2.23D-11 Max=1.75D-10 NDo=     1
 LinEq1:  Iter=  9 NonCon=     0 RMS=3.03D-12 Max=3.54D-11 NDo=     1
 Linear equations converged to 5.420D-12 5.420D-11 after     9 iterations.
 LinEq1:  Iter=  0 NonCon=     1 RMS=1.25D-08 Max=1.38D-07 NDo=     1
 LinEq1:  Iter=  1 NonCon=     1 RMS=3.74D-09 Max=3.34D-08 NDo=     1
 LinEq1:  Iter=  2 NonCon=     1 RMS=1.95D-09 Max=1.95D-08 NDo=     1
 LinEq1:  Iter=  3 NonCon=     1 RMS=5.14D-10 Max=4.27D-09 NDo=     1
 LinEq1:  Iter=  4 NonCon=     1 RMS=1.59D-10 Max=1.31D-09 NDo=     1
 LinEq1:  Iter=  5 NonCon=     1 RMS=1.08D-10 Max=7.54D-10 NDo=     1
 LinEq1:  Iter=  6 NonCon=     1 RMS=2.36D-11 Max=1.40D-10 NDo=     1
 LinEq1:  Iter=  7 NonCon=     1 RMS=1.33D-11 Max=9.78D-11 NDo=     1
 LinEq1:  Iter=  8 NonCon=     1 RMS=8.71D-12 Max=9.15D-11 NDo=     1
 LinEq1:  Iter=  9 NonCon=     0 RMS=3.06D-12 Max=2.31D-11 NDo=     1
 Linear equations converged to 4.111D-12 4.111D-11 after     9 iterations.
 LinEq1:  Iter=  0 NonCon=     1 RMS=1.53D-08 Max=1.18D-07 NDo=     1
 LinEq1:  Iter=  1 NonCon=     1 RMS=6.14D-09 Max=5.51D-08 NDo=     1
 LinEq1:  Iter=  2 NonCon=     1 RMS=3.95D-09 Max=3.34D-08 NDo=     1
 LinEq1:  Iter=  3 NonCon=     1 RMS=2.35D-09 Max=1.58D-08 NDo=     1
 LinEq1:  Iter=  4 NonCon=     1 RMS=4.47D-10 Max=4.02D-09 NDo=     1
 LinEq1:  Iter=  5 NonCon=     1 RMS=1.92D-10 Max=1.69D-09 NDo=     1
 LinEq1:  Iter=  6 NonCon=     1 RMS=1.15D-10 Max=8.86D-10 NDo=     1
 LinEq1:  Iter=  7 NonCon=     1 RMS=3.53D-11 Max=2.42D-10 NDo=     1
 LinEq1:  Iter=  8 NonCon=     1 RMS=1.66D-11 Max=1.27D-10 NDo=     1
 LinEq1:  Iter=  9 NonCon=     0 RMS=4.17D-12 Max=4.51D-11 NDo=     1
 Linear equations converged to 6.766D-12 6.766D-11 after     9 iterations.
 LinEq1:  Iter=  0 NonCon=     1 RMS=1.25D-08 Max=1.31D-07 NDo=     1
 LinEq1:  Iter=  1 NonCon=     1 RMS=3.92D-09 Max=3.40D-08 NDo=     1
 LinEq1:  Iter=  2 NonCon=     1 RMS=2.06D-09 Max=1.97D-08 NDo=     1
 LinEq1:  Iter=  3 NonCon=     1 RMS=5.81D-10 Max=4.51D-09 NDo=     1
 LinEq1:  Iter=  4 NonCon=     1 RMS=2.64D-10 Max=2.59D-09 NDo=     1
 LinEq1:  Iter=  5 NonCon=     1 RMS=1.38D-10 Max=1.10D-09 NDo=     1
 LinEq1:  Iter=  6 NonCon=     1 RMS=5.48D-11 Max=5.38D-10 NDo=     1
 LinEq1:  Iter=  7 NonCon=     1 RMS=4.66D-11 Max=4.12D-10 NDo=     1
 LinEq1:  Iter=  8 NonCon=     1 RMS=1.61D-11 Max=1.03D-10 NDo=     1
 LinEq1:  Iter=  9 NonCon=     0 RMS=3.32D-12 Max=2.65D-11 NDo=     1
 Linear equations converged to 3.674D-12 3.674D-11 after     9 iterations.
 QCLLim is confused:  Bigger=T Turned=T
 NLin=  3 IMin12=  1  2 I12=  0  2 IX=  1 XLMin= 0.000D+00 XLMax= 0.000D+00
 X = 0.000D+00 1.000D+00 2.000D+00
 DE= 0.000D+00 1.293D-12 9.834D-12
 LinEq1:  Iter=  0 NonCon=     1 RMS=2.00D-08 Max=1.75D-07 NDo=     1
 LinEq1:  Iter=  1 NonCon=     1 RMS=5.53D-09 Max=4.05D-08 NDo=     1
 LinEq1:  Iter=  2 NonCon=     1 RMS=2.72D-09 Max=2.79D-08 NDo=     1
 LinEq1:  Iter=  3 NonCon=     1 RMS=1.76D-09 Max=1.09D-08 NDo=     1
 LinEq1:  Iter=  4 NonCon=     1 RMS=6.39D-10 Max=6.60D-09 NDo=     1
 LinEq1:  Iter=  5 NonCon=     1 RMS=3.51D-10 Max=3.36D-09 NDo=     1
 LinEq1:  Iter=  6 NonCon=     1 RMS=1.08D-10 Max=8.95D-10 NDo=     1
 LinEq1:  Iter=  7 NonCon=     1 RMS=5.33D-11 Max=5.16D-10 NDo=     1
 LinEq1:  Iter=  8 NonCon=     1 RMS=1.87D-11 Max=1.46D-10 NDo=     1
 LinEq1:  Iter=  9 NonCon=     0 RMS=2.79D-12 Max=3.41D-11 NDo=     1
 Linear equations converged to 9.604D-12 9.604D-11 after     9 iterations.
 LinEq1:  Iter=  0 NonCon=     1 RMS=2.52D-08 Max=3.01D-07 NDo=     1
 LinEq1:  Iter=  1 NonCon=     1 RMS=7.62D-09 Max=7.51D-08 NDo=     1
 LinEq1:  Iter=  2 NonCon=     1 RMS=3.65D-09 Max=3.82D-08 NDo=     1
 LinEq1:  Iter=  3 NonCon=     1 RMS=1.30D-09 Max=1.08D-08 NDo=     1
 LinEq1:  Iter=  4 NonCon=     1 RMS=4.76D-10 Max=2.89D-09 NDo=     1
 LinEq1:  Iter=  5 NonCon=     1 RMS=1.67D-10 Max=1.44D-09 NDo=     1
 LinEq1:  Iter=  6 NonCon=     1 RMS=9.96D-11 Max=1.44D-09 NDo=     1
 LinEq1:  Iter=  7 NonCon=     1 RMS=8.30D-11 Max=1.04D-09 NDo=     1
 LinEq1:  Iter=  8 NonCon=     1 RMS=2.06D-11 Max=1.94D-10 NDo=     1
 LinEq1:  Iter=  9 NonCon=     0 RMS=3.45D-12 Max=2.17D-11 NDo=     1
 Linear equations converged to 6.598D-12 6.598D-11 after     9 iterations.
 LinEq1:  Iter=  0 NonCon=     1 RMS=1.49D-08 Max=9.20D-08 NDo=     1
 LinEq1:  Iter=  1 NonCon=     1 RMS=4.58D-09 Max=4.18D-08 NDo=     1
 LinEq1:  Iter=  2 NonCon=     1 RMS=2.10D-09 Max=2.12D-08 NDo=     1
 LinEq1:  Iter=  3 NonCon=     1 RMS=1.12D-09 Max=1.07D-08 NDo=     1
 LinEq1:  Iter=  4 NonCon=     1 RMS=5.09D-10 Max=4.92D-09 NDo=     1
 LinEq1:  Iter=  5 NonCon=     1 RMS=1.96D-10 Max=1.25D-09 NDo=     1
 LinEq1:  Iter=  6 NonCon=     1 RMS=7.24D-11 Max=5.19D-10 NDo=     1
 LinEq1:  Iter=  7 NonCon=     1 RMS=3.64D-11 Max=3.12D-10 NDo=     1
 LinEq1:  Iter=  8 NonCon=     1 RMS=1.47D-11 Max=8.92D-11 NDo=     1
 LinEq1:  Iter=  9 NonCon=     0 RMS=2.29D-12 Max=2.05D-11 NDo=     1
 Linear equations converged to 8.081D-12 8.081D-11 after     9 iterations.
 LinEq1:  Iter=  0 NonCon=     1 RMS=3.30D-08 Max=2.93D-07 NDo=     1
 LinEq1:  Iter=  1 NonCon=     1 RMS=1.01D-08 Max=9.88D-08 NDo=     1
 LinEq1:  Iter=  2 NonCon=     1 RMS=5.13D-09 Max=5.90D-08 NDo=     1
 LinEq1:  Iter=  3 NonCon=     1 RMS=1.89D-09 Max=1.29D-08 NDo=     1
 LinEq1:  Iter=  4 NonCon=     1 RMS=1.11D-09 Max=9.60D-09 NDo=     1
 LinEq1:  Iter=  5 NonCon=     1 RMS=3.22D-10 Max=2.45D-09 NDo=     1
 LinEq1:  Iter=  6 NonCon=     1 RMS=1.29D-10 Max=8.14D-10 NDo=     1
 LinEq1:  Iter=  7 NonCon=     1 RMS=8.42D-11 Max=7.72D-10 NDo=     1
 LinEq1:  Iter=  8 NonCon=     1 RMS=3.01D-11 Max=2.65D-10 NDo=     1
 LinEq1:  Iter=  9 NonCon=     0 RMS=4.87D-12 Max=3.71D-11 NDo=     1
 Linear equations converged to 1.110D-11 1.110D-10 after     9 iterations.
 LinEq1:  Iter=  0 NonCon=     1 RMS=1.74D-08 Max=1.34D-07 NDo=     1
 LinEq1:  Iter=  1 NonCon=     1 RMS=5.11D-09 Max=4.18D-08 NDo=     1
 LinEq1:  Iter=  2 NonCon=     1 RMS=2.53D-09 Max=2.70D-08 NDo=     1
 LinEq1:  Iter=  3 NonCon=     1 RMS=1.58D-09 Max=1.15D-08 NDo=     1
 LinEq1:  Iter=  4 NonCon=     1 RMS=6.54D-10 Max=5.64D-09 NDo=     1
 LinEq1:  Iter=  5 NonCon=     1 RMS=3.72D-10 Max=2.65D-09 NDo=     1
 LinEq1:  Iter=  6 NonCon=     1 RMS=1.23D-10 Max=8.96D-10 NDo=     1
 LinEq1:  Iter=  7 NonCon=     1 RMS=7.26D-11 Max=6.53D-10 NDo=     1
 LinEq1:  Iter=  8 NonCon=     1 RMS=2.42D-11 Max=1.63D-10 NDo=     1
 LinEq1:  Iter=  9 NonCon=     0 RMS=3.20D-12 Max=1.98D-11 NDo=     1
 Linear equations converged to 1.095D-11 1.095D-10 after     9 iterations.
 LinEq1:  Iter=  0 NonCon=     1 RMS=3.38D-08 Max=2.47D-07 NDo=     1
 LinEq1:  Iter=  1 NonCon=     1 RMS=8.54D-09 Max=8.19D-08 NDo=     1
 LinEq1:  Iter=  2 NonCon=     1 RMS=4.99D-09 Max=4.39D-08 NDo=     1
 LinEq1:  Iter=  3 NonCon=     1 RMS=3.80D-09 Max=2.46D-08 NDo=     1
 LinEq1:  Iter=  4 NonCon=     1 RMS=1.47D-09 Max=1.09D-08 NDo=     1
 LinEq1:  Iter=  5 NonCon=     1 RMS=7.48D-10 Max=7.03D-09 NDo=     1
 LinEq1:  Iter=  6 NonCon=     1 RMS=3.12D-10 Max=2.30D-09 NDo=     1
 LinEq1:  Iter=  7 NonCon=     1 RMS=1.29D-10 Max=1.23D-09 NDo=     1
 LinEq1:  Iter=  8 NonCon=     1 RMS=4.08D-11 Max=2.70D-10 NDo=     1
 LinEq1:  Iter=  9 NonCon=     0 RMS=5.76D-12 Max=5.49D-11 NDo=     1
 Linear equations converged to 3.900D-11 3.900D-10 after     9 iterations.
 LinEq1:  Iter=  0 NonCon=     1 RMS=2.07D-08 Max=1.95D-07 NDo=     1
 LinEq1:  Iter=  1 NonCon=     1 RMS=6.00D-09 Max=4.07D-08 NDo=     1
 LinEq1:  Iter=  2 NonCon=     1 RMS=4.19D-09 Max=4.36D-08 NDo=     1
 LinEq1:  Iter=  3 NonCon=     1 RMS=2.82D-09 Max=2.47D-08 NDo=     1
 LinEq1:  Iter=  4 NonCon=     1 RMS=7.78D-10 Max=5.71D-09 NDo=     1
 LinEq1:  Iter=  5 NonCon=     1 RMS=5.03D-10 Max=4.92D-09 NDo=     1
 LinEq1:  Iter=  6 NonCon=     1 RMS=1.74D-10 Max=1.35D-09 NDo=     1
 LinEq1:  Iter=  7 NonCon=     1 RMS=9.03D-11 Max=8.25D-10 NDo=     1
 LinEq1:  Iter=  8 NonCon=     0 RMS=3.42D-11 Max=2.52D-10 NDo=     1
 Linear equations converged to 3.657D-11 3.657D-10 after     8 iterations.
 QCLLim is confused:  Bigger=T Turned=T
 NLin=  3 IMin12=  1  2 I12=  0  2 IX=  1 XLMin= 0.000D+00 XLMax= 0.000D+00
 X = 0.000D+00 1.000D+00 2.000D+00
 DE= 0.000D+00 1.762D-12 8.612D-12
 LinEq1:  Iter=  0 NonCon=     1 RMS=1.91D-08 Max=1.48D-07 NDo=     1
 LinEq1:  Iter=  1 NonCon=     1 RMS=6.69D-09 Max=4.25D-08 NDo=     1
 LinEq1:  Iter=  2 NonCon=     1 RMS=5.12D-09 Max=4.58D-08 NDo=     1
 LinEq1:  Iter=  3 NonCon=     1 RMS=2.95D-09 Max=2.14D-08 NDo=     1
 LinEq1:  Iter=  4 NonCon=     1 RMS=9.22D-10 Max=7.32D-09 NDo=     1
 LinEq1:  Iter=  5 NonCon=     1 RMS=5.06D-10 Max=5.76D-09 NDo=     1
 LinEq1:  Iter=  6 NonCon=     1 RMS=2.82D-10 Max=2.87D-09 NDo=     1
 LinEq1:  Iter=  7 NonCon=     1 RMS=1.48D-10 Max=9.97D-10 NDo=     1
 LinEq1:  Iter=  8 NonCon=     0 RMS=3.44D-11 Max=1.67D-10 NDo=     1
 Linear equations converged to 4.650D-11 4.650D-10 after     8 iterations.
 QCLLim is confused:  Bigger=T Turned=T
 NLin=  3 IMin12=  1  2 I12=  0  2 IX=  1 XLMin= 0.000D+00 XLMax= 0.000D+00
 X = 0.000D+00 1.000D+00 2.000D+00
 DE= 0.000D+00 1.535D-12 7.006D-12
 LinEq1:  Iter=  0 NonCon=     1 RMS=1.78D-08 Max=1.41D-07 NDo=     1
 LinEq1:  Iter=  1 NonCon=     1 RMS=6.47D-09 Max=4.09D-08 NDo=     1
 LinEq1:  Iter=  2 NonCon=     1 RMS=4.98D-09 Max=5.06D-08 NDo=     1
 LinEq1:  Iter=  3 NonCon=     1 RMS=2.70D-09 Max=2.28D-08 NDo=     1
 LinEq1:  Iter=  4 NonCon=     1 RMS=9.17D-10 Max=7.00D-09 NDo=     1
 LinEq1:  Iter=  5 NonCon=     1 RMS=4.32D-10 Max=5.00D-09 NDo=     1
 LinEq1:  Iter=  6 NonCon=     1 RMS=2.14D-10 Max=2.20D-09 NDo=     1
 LinEq1:  Iter=  7 NonCon=     1 RMS=1.03D-10 Max=8.15D-10 NDo=     1
 LinEq1:  Iter=  8 NonCon=     0 RMS=1.74D-11 Max=9.25D-11 NDo=     1
 Linear equations converged to 5.047D-11 5.047D-10 after     8 iterations.
 QCLLim is confused:  Bigger=T Turned=T
 NLin=  3 IMin12=  1  2 I12=  0  2 IX=  1 XLMin= 0.000D+00 XLMax= 0.000D+00
 X = 0.000D+00 1.000D+00 2.000D+00
 DE= 0.000D+00 6.835D-12 3.057D-11
 LinEq1:  Iter=  0 NonCon=     1 RMS=1.92D-08 Max=1.53D-07 NDo=     1
 LinEq1:  Iter=  1 NonCon=     1 RMS=6.01D-09 Max=4.54D-08 NDo=     1
 LinEq1:  Iter=  2 NonCon=     1 RMS=4.49D-09 Max=4.76D-08 NDo=     1
 LinEq1:  Iter=  3 NonCon=     1 RMS=2.55D-09 Max=2.44D-08 NDo=     1
 LinEq1:  Iter=  4 NonCon=     1 RMS=8.63D-10 Max=7.15D-09 NDo=     1
 LinEq1:  Iter=  5 NonCon=     1 RMS=2.49D-10 Max=2.45D-09 NDo=     1
 LinEq1:  Iter=  6 NonCon=     1 RMS=1.17D-10 Max=7.49D-10 NDo=     1
 LinEq1:  Iter=  7 NonCon=     0 RMS=2.18D-11 Max=1.32D-10 NDo=     1
 Linear equations converged to 5.134D-11 5.134D-10 after     7 iterations.
 QCLLim is confused:  Bigger=T Turned=T
 NLin=  3 IMin12=  1  2 I12=  0  2 IX=  1 XLMin= 0.000D+00 XLMax= 0.000D+00
 X = 0.000D+00 1.000D+00 2.000D+00
 DE= 0.000D+00 7.702D-12 9.392D-11
 LinEq1:  Iter=  0 NonCon=     1 RMS=7.85D-08 Max=4.86D-07 NDo=     1
 LinEq1:  Iter=  1 NonCon=     1 RMS=2.48D-08 Max=1.92D-07 NDo=     1
 LinEq1:  Iter=  2 NonCon=     1 RMS=1.57D-08 Max=1.74D-07 NDo=     1
 LinEq1:  Iter=  3 NonCon=     1 RMS=1.34D-08 Max=1.37D-07 NDo=     1
 LinEq1:  Iter=  4 NonCon=     1 RMS=4.62D-09 Max=3.61D-08 NDo=     1
 LinEq1:  Iter=  5 NonCon=     1 RMS=2.11D-09 Max=2.19D-08 NDo=     1
 LinEq1:  Iter=  6 NonCon=     1 RMS=1.07D-09 Max=7.69D-09 NDo=     1
 LinEq1:  Iter=  7 NonCon=     1 RMS=5.93D-10 Max=4.25D-09 NDo=     1
 LinEq1:  Iter=  8 NonCon=     0 RMS=6.54D-11 Max=3.34D-10 NDo=     1
 Linear equations converged to 8.516D-11 8.516D-10 after     8 iterations.
 Incorrect curvature in search direction -- initial direction reversed.
 LinEq1:  Iter=  0 NonCon=     1 RMS=1.73D-06 Max=9.69D-06 NDo=     1
 LinEq1:  Iter=  1 NonCon=     1 RMS=6.93D-07 Max=5.12D-06 NDo=     1
 LinEq1:  Iter=  2 NonCon=     1 RMS=3.78D-07 Max=3.53D-06 NDo=     1
 LinEq1:  Iter=  3 NonCon=     1 RMS=1.62D-07 Max=1.29D-06 NDo=     1
 LinEq1:  Iter=  4 NonCon=     1 RMS=4.91D-08 Max=3.58D-07 NDo=     1
 LinEq1:  Iter=  5 NonCon=     1 RMS=2.41D-08 Max=2.67D-07 NDo=     1
 LinEq1:  Iter=  6 NonCon=     1 RMS=1.45D-08 Max=1.44D-07 NDo=     1
 LinEq1:  Iter=  7 NonCon=     1 RMS=7.52D-09 Max=5.70D-08 NDo=     1
 LinEq1:  Iter=  8 NonCon=     1 RMS=2.02D-09 Max=1.35D-08 NDo=     1
 LinEq1:  Iter=  9 NonCon=     0 RMS=3.07D-10 Max=1.80D-09 NDo=     1
 Linear equations converged to 1.640D-09 1.640D-08 after     9 iterations.
     Accept linear search using points  1 and  2.
     Minimum is close to point  2 DX= -1.66D-02 DF= -2.57D-12 DXR=  1.68D-02 DFR=  2.84D-04 which will be used.
 LinEq1:  Iter=  0 NonCon=     1 RMS=4.24D-07 Max=2.49D-06 NDo=     1
 LinEq1:  Iter=  1 NonCon=     1 RMS=9.83D-08 Max=7.38D-07 NDo=     1
 LinEq1:  Iter=  2 NonCon=     1 RMS=7.22D-08 Max=7.50D-07 NDo=     1
 LinEq1:  Iter=  3 NonCon=     1 RMS=4.50D-08 Max=4.18D-07 NDo=     1
 LinEq1:  Iter=  4 NonCon=     1 RMS=9.56D-09 Max=5.67D-08 NDo=     1
 LinEq1:  Iter=  5 NonCon=     1 RMS=1.83D-09 Max=1.76D-08 NDo=     1
 LinEq1:  Iter=  6 NonCon=     1 RMS=1.07D-09 Max=1.55D-08 NDo=     1
 LinEq1:  Iter=  7 NonCon=     1 RMS=8.88D-10 Max=1.19D-08 NDo=     1
 LinEq1:  Iter=  8 NonCon=     1 RMS=4.40D-10 Max=3.46D-09 NDo=     1
 LinEq1:  Iter=  9 NonCon=     0 RMS=7.55D-11 Max=5.21D-10 NDo=     1
 Linear equations converged to 2.214D-10 2.214D-09 after     9 iterations.
 LinEq1:  Iter=  0 NonCon=     1 RMS=2.35D-07 Max=1.62D-06 NDo=     1
 LinEq1:  Iter=  1 NonCon=     1 RMS=6.66D-08 Max=5.26D-07 NDo=     1
 LinEq1:  Iter=  2 NonCon=     1 RMS=3.84D-08 Max=2.65D-07 NDo=     1
 LinEq1:  Iter=  3 NonCon=     1 RMS=2.13D-08 Max=2.04D-07 NDo=     1
 LinEq1:  Iter=  4 NonCon=     1 RMS=1.02D-08 Max=1.02D-07 NDo=     1
 LinEq1:  Iter=  5 NonCon=     1 RMS=6.46D-09 Max=5.87D-08 NDo=     1
 LinEq1:  Iter=  6 NonCon=     1 RMS=2.45D-09 Max=1.57D-08 NDo=     1
 LinEq1:  Iter=  7 NonCon=     1 RMS=9.60D-10 Max=9.77D-09 NDo=     1
 LinEq1:  Iter=  8 NonCon=     1 RMS=3.37D-10 Max=1.92D-09 NDo=     1
 LinEq1:  Iter=  9 NonCon=     0 RMS=5.23D-11 Max=2.89D-10 NDo=     1
 Linear equations converged to 1.753D-10 1.753D-09 after     9 iterations.
 LinEq1:  Iter=  0 NonCon=     1 RMS=7.87D-08 Max=4.35D-07 NDo=     1
 LinEq1:  Iter=  1 NonCon=     1 RMS=1.82D-08 Max=1.09D-07 NDo=     1
 LinEq1:  Iter=  2 NonCon=     1 RMS=7.36D-09 Max=4.66D-08 NDo=     1
 LinEq1:  Iter=  3 NonCon=     1 RMS=5.57D-09 Max=5.15D-08 NDo=     1
 LinEq1:  Iter=  4 NonCon=     1 RMS=1.80D-09 Max=1.00D-08 NDo=     1
 LinEq1:  Iter=  5 NonCon=     1 RMS=4.74D-10 Max=4.60D-09 NDo=     1
 LinEq1:  Iter=  6 NonCon=     1 RMS=3.49D-10 Max=4.26D-09 NDo=     1
 LinEq1:  Iter=  7 NonCon=     1 RMS=2.15D-10 Max=2.28D-09 NDo=     1
 LinEq1:  Iter=  8 NonCon=     1 RMS=8.78D-11 Max=7.81D-10 NDo=     1
 LinEq1:  Iter=  9 NonCon=     0 RMS=2.06D-11 Max=1.32D-10 NDo=     1
 Linear equations converged to 4.921D-11 4.921D-10 after     9 iterations.
 LinEq1:  Iter=  0 NonCon=     1 RMS=8.68D-08 Max=5.56D-07 NDo=     1
 LinEq1:  Iter=  1 NonCon=     1 RMS=2.32D-08 Max=2.01D-07 NDo=     1
 LinEq1:  Iter=  2 NonCon=     1 RMS=9.98D-09 Max=1.01D-07 NDo=     1
 LinEq1:  Iter=  3 NonCon=     1 RMS=6.98D-09 Max=7.44D-08 NDo=     1
 LinEq1:  Iter=  4 NonCon=     1 RMS=4.15D-09 Max=3.56D-08 NDo=     1
 LinEq1:  Iter=  5 NonCon=     1 RMS=1.75D-09 Max=1.16D-08 NDo=     1
 LinEq1:  Iter=  6 NonCon=     1 RMS=9.17D-10 Max=6.17D-09 NDo=     1
 LinEq1:  Iter=  7 NonCon=     1 RMS=4.77D-10 Max=5.09D-09 NDo=     1
 LinEq1:  Iter=  8 NonCon=     1 RMS=1.13D-10 Max=6.11D-10 NDo=     1
 LinEq1:  Iter=  9 NonCon=     0 RMS=2.42D-11 Max=1.27D-10 NDo=     1
 Linear equations converged to 4.746D-11 4.746D-10 after     9 iterations.
 LinEq1:  Iter=  0 NonCon=     1 RMS=5.49D-08 Max=2.87D-07 NDo=     1
 LinEq1:  Iter=  1 NonCon=     1 RMS=1.24D-08 Max=6.01D-08 NDo=     1
 LinEq1:  Iter=  2 NonCon=     1 RMS=3.63D-09 Max=4.20D-08 NDo=     1
 LinEq1:  Iter=  3 NonCon=     1 RMS=2.67D-09 Max=2.07D-08 NDo=     1
 LinEq1:  Iter=  4 NonCon=     1 RMS=1.22D-09 Max=6.90D-09 NDo=     1
 LinEq1:  Iter=  5 NonCon=     1 RMS=4.80D-10 Max=5.04D-09 NDo=     1
 LinEq1:  Iter=  6 NonCon=     1 RMS=3.00D-10 Max=3.06D-09 NDo=     1
 LinEq1:  Iter=  7 NonCon=     1 RMS=1.58D-10 Max=1.44D-09 NDo=     1
 LinEq1:  Iter=  8 NonCon=     1 RMS=5.68D-11 Max=5.21D-10 NDo=     1
 LinEq1:  Iter=  9 NonCon=     0 RMS=1.40D-11 Max=9.89D-11 NDo=     1
 Linear equations converged to 2.169D-11 2.169D-10 after     9 iterations.
 QCLLim is confused:  Bigger=T Turned=T
 NLin=  3 IMin12=  1  2 I12=  0  2 IX=  1 XLMin= 0.000D+00 XLMax= 0.000D+00
 X = 0.000D+00 1.000D+00 2.000D+00
 DE= 0.000D+00 8.953D-13 1.079D-11
 LinEq1:  Iter=  0 NonCon=     1 RMS=5.32D-08 Max=3.55D-07 NDo=     1
 LinEq1:  Iter=  1 NonCon=     1 RMS=1.40D-08 Max=1.37D-07 NDo=     1
 LinEq1:  Iter=  2 NonCon=     1 RMS=4.45D-09 Max=4.71D-08 NDo=     1
 LinEq1:  Iter=  3 NonCon=     1 RMS=2.57D-09 Max=2.20D-08 NDo=     1
 LinEq1:  Iter=  4 NonCon=     1 RMS=1.69D-09 Max=1.30D-08 NDo=     1
 LinEq1:  Iter=  5 NonCon=     1 RMS=7.33D-10 Max=5.27D-09 NDo=     1
 LinEq1:  Iter=  6 NonCon=     1 RMS=3.41D-10 Max=2.97D-09 NDo=     1
 LinEq1:  Iter=  7 NonCon=     1 RMS=2.25D-10 Max=2.30D-09 NDo=     1
 LinEq1:  Iter=  8 NonCon=     1 RMS=5.14D-11 Max=4.46D-10 NDo=     1
 LinEq1:  Iter=  9 NonCon=     0 RMS=7.38D-12 Max=7.31D-11 NDo=     1
 Linear equations converged to 2.244D-11 2.244D-10 after     9 iterations.
 QCLLim is confused:  Bigger=T Turned=T
 NLin=  3 IMin12=  1  2 I12=  0  2 IX=  1 XLMin= 0.000D+00 XLMax= 0.000D+00
 X = 0.000D+00 1.000D+00 2.000D+00
 DE= 0.000D+00 3.666D-12 2.640D-11
 LinEq1:  Iter=  0 NonCon=     1 RMS=6.68D-08 Max=5.04D-07 NDo=     1
 LinEq1:  Iter=  1 NonCon=     1 RMS=1.42D-08 Max=1.36D-07 NDo=     1
 LinEq1:  Iter=  2 NonCon=     1 RMS=4.74D-09 Max=4.65D-08 NDo=     1
 LinEq1:  Iter=  3 NonCon=     1 RMS=3.50D-09 Max=3.57D-08 NDo=     1
 LinEq1:  Iter=  4 NonCon=     1 RMS=2.00D-09 Max=1.29D-08 NDo=     1
 LinEq1:  Iter=  5 NonCon=     1 RMS=8.30D-10 Max=7.36D-09 NDo=     1
 LinEq1:  Iter=  6 NonCon=     1 RMS=4.67D-10 Max=3.93D-09 NDo=     1
 LinEq1:  Iter=  7 NonCon=     1 RMS=1.80D-10 Max=1.79D-09 NDo=     1
 LinEq1:  Iter=  8 NonCon=     1 RMS=7.71D-11 Max=4.50D-10 NDo=     1
 LinEq1:  Iter=  9 NonCon=     0 RMS=2.02D-11 Max=1.13D-10 NDo=     1
 Linear equations converged to 2.217D-11 2.217D-10 after     9 iterations.
 QCLLim is confused:  Bigger=T Turned=T
 NLin=  3 IMin12=  1  2 I12=  0  2 IX=  1 XLMin= 0.000D+00 XLMax= 0.000D+00
 X = 0.000D+00 1.000D+00 2.000D+00
 DE= 0.000D+00 2.700D-13 8.143D-12
 LinEq1:  Iter=  0 NonCon=     1 RMS=5.09D-08 Max=3.59D-07 NDo=     1
 LinEq1:  Iter=  1 NonCon=     1 RMS=1.26D-08 Max=1.11D-07 NDo=     1
 LinEq1:  Iter=  2 NonCon=     1 RMS=5.19D-09 Max=3.87D-08 NDo=     1
 LinEq1:  Iter=  3 NonCon=     1 RMS=2.96D-09 Max=1.93D-08 NDo=     1
 LinEq1:  Iter=  4 NonCon=     1 RMS=1.43D-09 Max=1.17D-08 NDo=     1
 LinEq1:  Iter=  5 NonCon=     1 RMS=1.95D-10 Max=2.09D-09 NDo=     1
 LinEq1:  Iter=  6 NonCon=     1 RMS=1.04D-10 Max=8.54D-10 NDo=     1
 LinEq1:  Iter=  7 NonCon=     1 RMS=5.95D-11 Max=6.27D-10 NDo=     1
 LinEq1:  Iter=  8 NonCon=     1 RMS=3.15D-11 Max=2.50D-10 NDo=     1
 LinEq1:  Iter=  9 NonCon=     0 RMS=6.84D-12 Max=5.69D-11 NDo=     1
 Linear equations converged to 2.189D-11 2.189D-10 after     9 iterations.
 QCLLim is confused:  Bigger=T Turned=T
 NLin=  3 IMin12=  1  2 I12=  0  2 IX=  1 XLMin= 0.000D+00 XLMax= 0.000D+00
 X = 0.000D+00 1.000D+00 2.000D+00
 DE= 0.000D+00 5.173D-12 3.199D-11
 LinEq1:  Iter=  0 NonCon=     1 RMS=6.36D-08 Max=3.96D-07 NDo=     1
 LinEq1:  Iter=  1 NonCon=     1 RMS=1.58D-08 Max=1.52D-07 NDo=     1
 LinEq1:  Iter=  2 NonCon=     1 RMS=8.23D-09 Max=1.02D-07 NDo=     1
 LinEq1:  Iter=  3 NonCon=     1 RMS=7.25D-09 Max=8.15D-08 NDo=     1
 LinEq1:  Iter=  4 NonCon=     1 RMS=3.58D-09 Max=2.97D-08 NDo=     1
 LinEq1:  Iter=  5 NonCon=     1 RMS=9.38D-10 Max=4.76D-09 NDo=     1
 LinEq1:  Iter=  6 NonCon=     1 RMS=4.01D-10 Max=2.47D-09 NDo=     1
 LinEq1:  Iter=  7 NonCon=     1 RMS=3.05D-10 Max=2.42D-09 NDo=     1
 LinEq1:  Iter=  8 NonCon=     1 RMS=7.19D-11 Max=4.83D-10 NDo=     1
 LinEq1:  Iter=  9 NonCon=     0 RMS=1.32D-11 Max=8.86D-11 NDo=     1
 Linear equations converged to 2.378D-11 2.378D-10 after     9 iterations.
 QCLLim is confused:  Bigger=T Turned=T
 NLin=  3 IMin12=  1  2 I12=  0  2 IX=  1 XLMin= 0.000D+00 XLMax= 0.000D+00
 X = 0.000D+00 1.000D+00 2.000D+00
 DE= 0.000D+00 3.610D-12 2.352D-11
 LinEq1:  Iter=  0 NonCon=     1 RMS=5.79D-08 Max=3.85D-07 NDo=     1
 LinEq1:  Iter=  1 NonCon=     1 RMS=1.46D-08 Max=1.19D-07 NDo=     1
 LinEq1:  Iter=  2 NonCon=     1 RMS=6.33D-09 Max=6.45D-08 NDo=     1
 LinEq1:  Iter=  3 NonCon=     1 RMS=5.79D-09 Max=6.27D-08 NDo=     1
 LinEq1:  Iter=  4 NonCon=     1 RMS=2.91D-09 Max=2.09D-08 NDo=     1
 LinEq1:  Iter=  5 NonCon=     1 RMS=1.05D-09 Max=6.03D-09 NDo=     1
 LinEq1:  Iter=  6 NonCon=     1 RMS=4.29D-10 Max=2.93D-09 NDo=     1
 LinEq1:  Iter=  7 NonCon=     1 RMS=2.02D-10 Max=1.77D-09 NDo=     1
 LinEq1:  Iter=  8 NonCon=     1 RMS=7.03D-11 Max=4.51D-10 NDo=     1
 LinEq1:  Iter=  9 NonCon=     0 RMS=8.44D-12 Max=7.94D-11 NDo=     1
 Linear equations converged to 2.347D-11 2.347D-10 after     9 iterations.
 QCLLim is confused:  Bigger=T Turned=T
 NLin=  3 IMin12=  1  2 I12=  0  2 IX=  1 XLMin= 0.000D+00 XLMax= 0.000D+00
 X = 0.000D+00 1.000D+00 2.000D+00
 DE= 0.000D+00 1.805D-12 1.812D-11
 LinEq1:  Iter=  0 NonCon=     1 RMS=6.73D-08 Max=5.05D-07 NDo=     1
 LinEq1:  Iter=  1 NonCon=     1 RMS=1.31D-08 Max=1.31D-07 NDo=     1
 LinEq1:  Iter=  2 NonCon=     1 RMS=6.84D-09 Max=6.20D-08 NDo=     1
 LinEq1:  Iter=  3 NonCon=     1 RMS=5.52D-09 Max=5.45D-08 NDo=     1
 LinEq1:  Iter=  4 NonCon=     1 RMS=2.94D-09 Max=2.23D-08 NDo=     1
 LinEq1:  Iter=  5 NonCon=     1 RMS=1.79D-09 Max=1.17D-08 NDo=     1
 LinEq1:  Iter=  6 NonCon=     1 RMS=4.43D-10 Max=3.03D-09 NDo=     1
 LinEq1:  Iter=  7 NonCon=     1 RMS=2.28D-10 Max=1.96D-09 NDo=     1
 LinEq1:  Iter=  8 NonCon=     1 RMS=5.22D-11 Max=4.66D-10 NDo=     1
 LinEq1:  Iter=  9 NonCon=     0 RMS=7.22D-12 Max=4.38D-11 NDo=     1
 Linear equations converged to 2.644D-11 2.644D-10 after     9 iterations.
 LinEq1:  Iter=  0 NonCon=     1 RMS=7.64D-08 Max=4.37D-07 NDo=     1
 LinEq1:  Iter=  1 NonCon=     1 RMS=1.58D-08 Max=1.43D-07 NDo=     1
 LinEq1:  Iter=  2 NonCon=     1 RMS=7.88D-09 Max=5.59D-08 NDo=     1
 LinEq1:  Iter=  3 NonCon=     1 RMS=5.62D-09 Max=5.98D-08 NDo=     1
 LinEq1:  Iter=  4 NonCon=     1 RMS=3.01D-09 Max=2.54D-08 NDo=     1
 LinEq1:  Iter=  5 NonCon=     1 RMS=2.02D-09 Max=1.42D-08 NDo=     1
 LinEq1:  Iter=  6 NonCon=     1 RMS=4.17D-10 Max=2.64D-09 NDo=     1
 LinEq1:  Iter=  7 NonCon=     1 RMS=1.91D-10 Max=1.55D-09 NDo=     1
 LinEq1:  Iter=  8 NonCon=     1 RMS=6.12D-11 Max=5.08D-10 NDo=     1
 LinEq1:  Iter=  9 NonCon=     0 RMS=1.48D-11 Max=1.24D-10 NDo=     1
 Linear equations converged to 4.058D-11 4.058D-10 after     9 iterations.
 QCLLim is confused:  Bigger=T Turned=T
 NLin=  3 IMin12=  1  2 I12=  0  2 IX=  1 XLMin= 0.000D+00 XLMax= 0.000D+00
 X = 0.000D+00 1.000D+00 2.000D+00
 DE= 0.000D+00 1.506D-12 1.818D-11
 LinEq1:  Iter=  0 NonCon=     1 RMS=6.39D-08 Max=3.80D-07 NDo=     1
 LinEq1:  Iter=  1 NonCon=     1 RMS=1.56D-08 Max=1.41D-07 NDo=     1
 LinEq1:  Iter=  2 NonCon=     1 RMS=5.45D-09 Max=5.48D-08 NDo=     1
 LinEq1:  Iter=  3 NonCon=     1 RMS=3.90D-09 Max=3.75D-08 NDo=     1
 LinEq1:  Iter=  4 NonCon=     1 RMS=2.89D-09 Max=2.23D-08 NDo=     1
 LinEq1:  Iter=  5 NonCon=     1 RMS=1.09D-09 Max=5.35D-09 NDo=     1
 LinEq1:  Iter=  6 NonCon=     1 RMS=4.78D-10 Max=2.83D-09 NDo=     1
 LinEq1:  Iter=  7 NonCon=     1 RMS=2.37D-10 Max=2.29D-09 NDo=     1
 LinEq1:  Iter=  8 NonCon=     1 RMS=6.39D-11 Max=3.58D-10 NDo=     1
 LinEq1:  Iter=  9 NonCon=     0 RMS=7.99D-12 Max=3.79D-11 NDo=     1
 Linear equations converged to 2.617D-11 2.617D-10 after     9 iterations.
 QCLLim is confused:  Bigger=T Turned=T
 NLin=  3 IMin12=  1  2 I12=  0  2 IX=  1 XLMin= 0.000D+00 XLMax= 0.000D+00
 X = 0.000D+00 1.000D+00 2.000D+00
 DE= 0.000D+00 3.183D-12 2.692D-11
 LinEq1:  Iter=  0 NonCon=     1 RMS=6.48D-08 Max=3.79D-07 NDo=     1
 LinEq1:  Iter=  1 NonCon=     1 RMS=1.36D-08 Max=1.06D-07 NDo=     1
 LinEq1:  Iter=  2 NonCon=     1 RMS=5.81D-09 Max=5.46D-08 NDo=     1
 LinEq1:  Iter=  3 NonCon=     1 RMS=4.80D-09 Max=4.74D-08 NDo=     1
 LinEq1:  Iter=  4 NonCon=     1 RMS=3.04D-09 Max=2.29D-08 NDo=     1
 LinEq1:  Iter=  5 NonCon=     1 RMS=1.38D-09 Max=7.10D-09 NDo=     1
 LinEq1:  Iter=  6 NonCon=     1 RMS=4.84D-10 Max=3.62D-09 NDo=     1
 LinEq1:  Iter=  7 NonCon=     1 RMS=1.94D-10 Max=1.74D-09 NDo=     1
 LinEq1:  Iter=  8 NonCon=     1 RMS=7.28D-11 Max=4.11D-10 NDo=     1
 LinEq1:  Iter=  9 NonCon=     0 RMS=1.33D-11 Max=1.09D-10 NDo=     1
 Linear equations converged to 2.308D-11 2.308D-10 after     9 iterations.
 QCLLim is confused:  Bigger=T Turned=T
 NLin=  3 IMin12=  1  2 I12=  0  2 IX=  1 XLMin= 0.000D+00 XLMax= 0.000D+00
 X = 0.000D+00 1.000D+00 2.000D+00
 DE= 0.000D+00 7.248D-13 1.261D-11
 LinEq1:  Iter=  0 NonCon=     1 RMS=5.87D-08 Max=3.69D-07 NDo=     1
 LinEq1:  Iter=  1 NonCon=     1 RMS=1.22D-08 Max=1.15D-07 NDo=     1
 LinEq1:  Iter=  2 NonCon=     1 RMS=4.95D-09 Max=5.16D-08 NDo=     1
 LinEq1:  Iter=  3 NonCon=     1 RMS=3.72D-09 Max=4.54D-08 NDo=     1
 LinEq1:  Iter=  4 NonCon=     1 RMS=2.27D-09 Max=2.00D-08 NDo=     1
 LinEq1:  Iter=  5 NonCon=     1 RMS=5.39D-10 Max=3.82D-09 NDo=     1
 LinEq1:  Iter=  6 NonCon=     1 RMS=2.85D-10 Max=2.28D-09 NDo=     1
 LinEq1:  Iter=  7 NonCon=     1 RMS=2.13D-10 Max=1.23D-09 NDo=     1
 LinEq1:  Iter=  8 NonCon=     1 RMS=5.49D-11 Max=4.46D-10 NDo=     1
 LinEq1:  Iter=  9 NonCon=     0 RMS=1.27D-11 Max=7.39D-11 NDo=     1
 Linear equations converged to 2.405D-11 2.405D-10 after     9 iterations.
 QCLLim is confused:  Bigger=T Turned=T
 NLin=  3 IMin12=  1  2 I12=  0  2 IX=  1 XLMin= 0.000D+00 XLMax= 0.000D+00
 X = 0.000D+00 1.000D+00 2.000D+00
 DE= 0.000D+00 3.766D-12 2.443D-11
 LinEq1:  Iter=  0 NonCon=     1 RMS=5.60D-08 Max=3.78D-07 NDo=     1
 LinEq1:  Iter=  1 NonCon=     1 RMS=1.29D-08 Max=1.09D-07 NDo=     1
 LinEq1:  Iter=  2 NonCon=     1 RMS=4.51D-09 Max=4.88D-08 NDo=     1
 LinEq1:  Iter=  3 NonCon=     1 RMS=3.16D-09 Max=2.82D-08 NDo=     1
 LinEq1:  Iter=  4 NonCon=     1 RMS=2.00D-09 Max=1.46D-08 NDo=     1
 LinEq1:  Iter=  5 NonCon=     1 RMS=8.41D-10 Max=6.15D-09 NDo=     1
 LinEq1:  Iter=  6 NonCon=     1 RMS=3.60D-10 Max=2.91D-09 NDo=     1
 LinEq1:  Iter=  7 NonCon=     1 RMS=2.26D-10 Max=1.89D-09 NDo=     1
 LinEq1:  Iter=  8 NonCon=     1 RMS=6.92D-11 Max=4.49D-10 NDo=     1
 LinEq1:  Iter=  9 NonCon=     0 RMS=6.51D-12 Max=4.20D-11 NDo=     1
 Linear equations converged to 2.380D-11 2.380D-10 after     9 iterations.
 QCLLim is confused:  Bigger=T Turned=T
 NLin=  3 IMin12=  1  2 I12=  0  2 IX=  1 XLMin= 0.000D+00 XLMax= 0.000D+00
 X = 0.000D+00 1.000D+00 2.000D+00
 DE= 0.000D+00 1.850D-11 9.200D-11
 LinEq1:  Iter=  0 NonCon=     1 RMS=5.75D-08 Max=3.88D-07 NDo=     1
 LinEq1:  Iter=  1 NonCon=     1 RMS=1.23D-08 Max=1.17D-07 NDo=     1
 LinEq1:  Iter=  2 NonCon=     1 RMS=5.77D-09 Max=5.37D-08 NDo=     1
 LinEq1:  Iter=  3 NonCon=     1 RMS=4.57D-09 Max=4.82D-08 NDo=     1
 LinEq1:  Iter=  4 NonCon=     1 RMS=2.33D-09 Max=1.86D-08 NDo=     1
 LinEq1:  Iter=  5 NonCon=     1 RMS=1.44D-09 Max=1.12D-08 NDo=     1
 LinEq1:  Iter=  6 NonCon=     1 RMS=2.98D-10 Max=2.14D-09 NDo=     1
 LinEq1:  Iter=  7 NonCon=     1 RMS=1.41D-10 Max=1.31D-09 NDo=     1
 LinEq1:  Iter=  8 NonCon=     1 RMS=5.13D-11 Max=4.00D-10 NDo=     1
 LinEq1:  Iter=  9 NonCon=     0 RMS=9.76D-12 Max=6.01D-11 NDo=     1
 Linear equations converged to 3.331D-11 3.331D-10 after     9 iterations.
 QCLLim is confused:  Bigger=T Turned=T
 NLin=  3 IMin12=  1  2 I12=  0  2 IX=  1 XLMin= 0.000D+00 XLMax= 0.000D+00
 X = 0.000D+00 1.000D+00 2.000D+00
 DE= 0.000D+00 7.319D-12 4.476D-11
 LinEq1:  Iter=  0 NonCon=     1 RMS=6.13D-08 Max=4.01D-07 NDo=     1
 LinEq1:  Iter=  1 NonCon=     1 RMS=1.38D-08 Max=1.05D-07 NDo=     1
 LinEq1:  Iter=  2 NonCon=     1 RMS=5.11D-09 Max=5.06D-08 NDo=     1
 LinEq1:  Iter=  3 NonCon=     1 RMS=3.44D-09 Max=4.18D-08 NDo=     1
 LinEq1:  Iter=  4 NonCon=     1 RMS=2.34D-09 Max=1.65D-08 NDo=     1
 LinEq1:  Iter=  5 NonCon=     1 RMS=5.52D-10 Max=5.02D-09 NDo=     1
 LinEq1:  Iter=  6 NonCon=     1 RMS=2.70D-10 Max=2.21D-09 NDo=     1
 LinEq1:  Iter=  7 NonCon=     1 RMS=1.76D-10 Max=1.17D-09 NDo=     1
 LinEq1:  Iter=  8 NonCon=     1 RMS=8.26D-11 Max=5.68D-10 NDo=     1
 LinEq1:  Iter=  9 NonCon=     0 RMS=1.41D-11 Max=1.16D-10 NDo=     1
 Linear equations converged to 2.484D-11 2.484D-10 after     9 iterations.
 QCLLim is confused:  Bigger=T Turned=T
 NLin=  3 IMin12=  1  2 I12=  0  2 IX=  1 XLMin= 0.000D+00 XLMax= 0.000D+00
 X = 0.000D+00 1.000D+00 2.000D+00
 DE= 0.000D+00 7.532D-13 1.390D-11
 LinEq1:  Iter=  0 NonCon=     1 RMS=5.97D-08 Max=3.91D-07 NDo=     1
 LinEq1:  Iter=  1 NonCon=     1 RMS=1.25D-08 Max=1.30D-07 NDo=     1
 LinEq1:  Iter=  2 NonCon=     1 RMS=4.94D-09 Max=5.18D-08 NDo=     1
 LinEq1:  Iter=  3 NonCon=     1 RMS=3.92D-09 Max=3.85D-08 NDo=     1
 LinEq1:  Iter=  4 NonCon=     1 RMS=1.98D-09 Max=1.65D-08 NDo=     1
 LinEq1:  Iter=  5 NonCon=     1 RMS=1.01D-09 Max=9.43D-09 NDo=     1
 LinEq1:  Iter=  6 NonCon=     1 RMS=3.49D-10 Max=2.57D-09 NDo=     1
 LinEq1:  Iter=  7 NonCon=     1 RMS=1.29D-10 Max=1.34D-09 NDo=     1
 LinEq1:  Iter=  8 NonCon=     1 RMS=4.96D-11 Max=3.93D-10 NDo=     1
 LinEq1:  Iter=  9 NonCon=     0 RMS=7.21D-12 Max=4.89D-11 NDo=     1
 Linear equations converged to 2.365D-11 2.365D-10 after     9 iterations.
 QCLLim is confused:  Bigger=T Turned=T
 NLin=  3 IMin12=  1  2 I12=  0  2 IX=  1 XLMin= 0.000D+00 XLMax= 0.000D+00
 X = 0.000D+00 1.000D+00 2.000D+00
 DE= 0.000D+00 1.876D-11 9.794D-11
 LinEq1:  Iter=  0 NonCon=     1 RMS=6.85D-08 Max=4.27D-07 NDo=     1
 LinEq1:  Iter=  1 NonCon=     1 RMS=1.52D-08 Max=1.15D-07 NDo=     1
 LinEq1:  Iter=  2 NonCon=     1 RMS=7.15D-09 Max=6.70D-08 NDo=     1
 LinEq1:  Iter=  3 NonCon=     1 RMS=4.00D-09 Max=2.77D-08 NDo=     1
 LinEq1:  Iter=  4 NonCon=     1 RMS=2.04D-09 Max=1.56D-08 NDo=     1
 LinEq1:  Iter=  5 NonCon=     1 RMS=7.50D-10 Max=7.98D-09 NDo=     1
 LinEq1:  Iter=  6 NonCon=     1 RMS=5.32D-10 Max=5.64D-09 NDo=     1
 LinEq1:  Iter=  7 NonCon=     1 RMS=2.57D-10 Max=1.93D-09 NDo=     1
 LinEq1:  Iter=  8 NonCon=     1 RMS=8.38D-11 Max=7.92D-10 NDo=     1
 LinEq1:  Iter=  9 NonCon=     0 RMS=1.32D-11 Max=6.11D-11 NDo=     1
 Linear equations converged to 3.147D-11 3.147D-10 after     9 iterations.
 QCLLim is confused:  Bigger=T Turned=T
 NLin=  3 IMin12=  1  2 I12=  0  2 IX=  1 XLMin= 0.000D+00 XLMax= 0.000D+00
 X = 0.000D+00 1.000D+00 2.000D+00
 DE= 0.000D+00 2.444D-12 2.601D-11
 LinEq1:  Iter=  0 NonCon=     1 RMS=6.09D-08 Max=4.30D-07 NDo=     1
 LinEq1:  Iter=  1 NonCon=     1 RMS=1.38D-08 Max=1.17D-07 NDo=     1
 LinEq1:  Iter=  2 NonCon=     1 RMS=7.25D-09 Max=7.00D-08 NDo=     1
 LinEq1:  Iter=  3 NonCon=     1 RMS=5.28D-09 Max=4.90D-08 NDo=     1
 LinEq1:  Iter=  4 NonCon=     1 RMS=2.46D-09 Max=2.09D-08 NDo=     1
 LinEq1:  Iter=  5 NonCon=     1 RMS=1.38D-09 Max=1.21D-08 NDo=     1
 LinEq1:  Iter=  6 NonCon=     1 RMS=5.66D-10 Max=5.38D-09 NDo=     1
 LinEq1:  Iter=  7 NonCon=     1 RMS=3.36D-10 Max=2.76D-09 NDo=     1
 LinEq1:  Iter=  8 NonCon=     1 RMS=7.41D-11 Max=4.58D-10 NDo=     1
 LinEq1:  Iter=  9 NonCon=     0 RMS=1.05D-11 Max=9.55D-11 NDo=     1
 Linear equations converged to 2.306D-11 2.306D-10 after     9 iterations.
 QCLLim is confused:  Bigger=T Turned=T
 NLin=  3 IMin12=  1  2 I12=  0  2 IX=  1 XLMin= 0.000D+00 XLMax= 0.000D+00
 X = 0.000D+00 1.000D+00 2.000D+00
 DE= 0.000D+00 3.666D-12 2.731D-11
 LinEq1:  Iter=  0 NonCon=     1 RMS=6.47D-08 Max=4.21D-07 NDo=     1
 LinEq1:  Iter=  1 NonCon=     1 RMS=1.29D-08 Max=1.22D-07 NDo=     1
 LinEq1:  Iter=  2 NonCon=     1 RMS=4.20D-09 Max=5.09D-08 NDo=     1
 LinEq1:  Iter=  3 NonCon=     1 RMS=2.75D-09 Max=2.73D-08 NDo=     1
 LinEq1:  Iter=  4 NonCon=     1 RMS=2.06D-09 Max=1.56D-08 NDo=     1
 LinEq1:  Iter=  5 NonCon=     1 RMS=3.64D-10 Max=3.06D-09 NDo=     1
 LinEq1:  Iter=  6 NonCon=     1 RMS=1.05D-10 Max=8.09D-10 NDo=     1
 LinEq1:  Iter=  7 NonCon=     1 RMS=8.54D-11 Max=6.06D-10 NDo=     1
 LinEq1:  Iter=  8 NonCon=     1 RMS=3.33D-11 Max=2.64D-10 NDo=     1
 LinEq1:  Iter=  9 NonCon=     0 RMS=2.47D-12 Max=1.64D-11 NDo=     1
 Linear equations converged to 2.739D-11 2.739D-10 after     9 iterations.
 LinEq1:  Iter=  0 NonCon=     1 RMS=7.86D-08 Max=5.25D-07 NDo=     1
 LinEq1:  Iter=  1 NonCon=     1 RMS=1.74D-08 Max=1.56D-07 NDo=     1
 LinEq1:  Iter=  2 NonCon=     1 RMS=1.04D-08 Max=7.06D-08 NDo=     1
 LinEq1:  Iter=  3 NonCon=     1 RMS=6.50D-09 Max=6.74D-08 NDo=     1
 LinEq1:  Iter=  4 NonCon=     1 RMS=2.95D-09 Max=2.38D-08 NDo=     1
 LinEq1:  Iter=  5 NonCon=     1 RMS=2.08D-09 Max=1.82D-08 NDo=     1
 LinEq1:  Iter=  6 NonCon=     1 RMS=5.14D-10 Max=3.86D-09 NDo=     1
 LinEq1:  Iter=  7 NonCon=     1 RMS=2.58D-10 Max=2.03D-09 NDo=     1
 LinEq1:  Iter=  8 NonCon=     1 RMS=6.46D-11 Max=5.92D-10 NDo=     1
 LinEq1:  Iter=  9 NonCon=     0 RMS=1.21D-11 Max=7.44D-11 NDo=     1
 Linear equations converged to 4.383D-11 4.383D-10 after     9 iterations.
 QCLLim is confused:  Bigger=T Turned=T
 NLin=  3 IMin12=  1  2 I12=  0  2 IX=  1 XLMin= 0.000D+00 XLMax= 0.000D+00
 X = 0.000D+00 1.000D+00 2.000D+00
 DE= 0.000D+00 1.000D-11 5.426D-11
 LinEq1:  Iter=  0 NonCon=     1 RMS=7.34D-08 Max=4.65D-07 NDo=     1
 LinEq1:  Iter=  1 NonCon=     1 RMS=1.80D-08 Max=1.43D-07 NDo=     1
 LinEq1:  Iter=  2 NonCon=     1 RMS=1.14D-08 Max=9.50D-08 NDo=     1
 LinEq1:  Iter=  3 NonCon=     1 RMS=8.00D-09 Max=6.83D-08 NDo=     1
 LinEq1:  Iter=  4 NonCon=     1 RMS=2.98D-09 Max=2.55D-08 NDo=     1
 LinEq1:  Iter=  5 NonCon=     1 RMS=1.95D-09 Max=1.77D-08 NDo=     1
 LinEq1:  Iter=  6 NonCon=     1 RMS=6.63D-10 Max=6.48D-09 NDo=     1
 LinEq1:  Iter=  7 NonCon=     1 RMS=3.88D-10 Max=3.35D-09 NDo=     1
 LinEq1:  Iter=  8 NonCon=     1 RMS=9.54D-11 Max=5.61D-10 NDo=     1
 LinEq1:  Iter=  9 NonCon=     0 RMS=1.29D-11 Max=8.18D-11 NDo=     1
 Linear equations converged to 4.364D-11 4.364D-10 after     9 iterations.
 QCLLim is confused:  Bigger=T Turned=T
 NLin=  3 IMin12=  1  2 I12=  0  2 IX=  1 XLMin= 0.000D+00 XLMax= 0.000D+00
 X = 0.000D+00 1.000D+00 2.000D+00
 DE= 0.000D+00 4.007D-12 3.990D-11
 LinEq1:  Iter=  0 NonCon=     1 RMS=6.72D-08 Max=4.02D-07 NDo=     1
 LinEq1:  Iter=  1 NonCon=     1 RMS=1.34D-08 Max=1.07D-07 NDo=     1
 LinEq1:  Iter=  2 NonCon=     1 RMS=5.44D-09 Max=5.48D-08 NDo=     1
 LinEq1:  Iter=  3 NonCon=     1 RMS=4.36D-09 Max=4.26D-08 NDo=     1
 LinEq1:  Iter=  4 NonCon=     1 RMS=2.45D-09 Max=1.90D-08 NDo=     1
 LinEq1:  Iter=  5 NonCon=     1 RMS=1.16D-09 Max=8.17D-09 NDo=     1
 LinEq1:  Iter=  6 NonCon=     1 RMS=3.72D-10 Max=3.16D-09 NDo=     1
 LinEq1:  Iter=  7 NonCon=     1 RMS=1.64D-10 Max=1.11D-09 NDo=     1
 LinEq1:  Iter=  8 NonCon=     1 RMS=4.39D-11 Max=2.64D-10 NDo=     1
 LinEq1:  Iter=  9 NonCon=     0 RMS=7.62D-12 Max=8.50D-11 NDo=     1
 Linear equations converged to 3.296D-11 3.296D-10 after     9 iterations.
 LinEq1:  Iter=  0 NonCon=     1 RMS=7.48D-08 Max=4.74D-07 NDo=     1
 LinEq1:  Iter=  1 NonCon=     1 RMS=1.83D-08 Max=1.55D-07 NDo=     1
 LinEq1:  Iter=  2 NonCon=     1 RMS=6.62D-09 Max=6.43D-08 NDo=     1
 LinEq1:  Iter=  3 NonCon=     1 RMS=4.26D-09 Max=4.13D-08 NDo=     1
 LinEq1:  Iter=  4 NonCon=     1 RMS=2.98D-09 Max=2.37D-08 NDo=     1
 LinEq1:  Iter=  5 NonCon=     1 RMS=1.25D-09 Max=8.74D-09 NDo=     1
 LinEq1:  Iter=  6 NonCon=     1 RMS=5.99D-10 Max=4.76D-09 NDo=     1
 LinEq1:  Iter=  7 NonCon=     1 RMS=3.58D-10 Max=3.14D-09 NDo=     1
 LinEq1:  Iter=  8 NonCon=     1 RMS=7.16D-11 Max=5.08D-10 NDo=     1
 LinEq1:  Iter=  9 NonCon=     0 RMS=8.49D-12 Max=7.60D-11 NDo=     1
 Linear equations converged to 3.276D-11 3.276D-10 after     9 iterations.
 QCLLim is confused:  Bigger=T Turned=T
 NLin=  3 IMin12=  1  2 I12=  0  2 IX=  1 XLMin= 0.000D+00 XLMax= 0.000D+00
 X = 0.000D+00 1.000D+00 2.000D+00
 DE= 0.000D+00 7.323D-11 3.295D-10
 LinEq1:  Iter=  0 NonCon=     1 RMS=7.81D-08 Max=5.00D-07 NDo=     1
 LinEq1:  Iter=  1 NonCon=     1 RMS=1.85D-08 Max=1.66D-07 NDo=     1
 LinEq1:  Iter=  2 NonCon=     1 RMS=7.31D-09 Max=6.59D-08 NDo=     1
 LinEq1:  Iter=  3 NonCon=     1 RMS=5.37D-09 Max=5.01D-08 NDo=     1
 LinEq1:  Iter=  4 NonCon=     1 RMS=2.97D-09 Max=2.44D-08 NDo=     1
 LinEq1:  Iter=  5 NonCon=     1 RMS=1.38D-09 Max=1.32D-08 NDo=     1
 LinEq1:  Iter=  6 NonCon=     1 RMS=7.10D-10 Max=6.33D-09 NDo=     1
 LinEq1:  Iter=  7 NonCon=     1 RMS=3.16D-10 Max=3.16D-09 NDo=     1
 LinEq1:  Iter=  8 NonCon=     1 RMS=8.61D-11 Max=5.16D-10 NDo=     1
 LinEq1:  Iter=  9 NonCon=     0 RMS=1.53D-11 Max=1.09D-10 NDo=     1
 Linear equations converged to 4.745D-11 4.745D-10 after     9 iterations.
 QCLLim is confused:  Bigger=T Turned=T
 NLin=  3 IMin12=  1  2 I12=  0  2 IX=  1 XLMin= 0.000D+00 XLMax= 0.000D+00
 X = 0.000D+00 1.000D+00 2.000D+00
 DE= 0.000D+00 2.899D-12 2.753D-11
 LinEq1:  Iter=  0 NonCon=     1 RMS=7.07D-08 Max=4.21D-07 NDo=     1
 LinEq1:  Iter=  1 NonCon=     1 RMS=1.68D-08 Max=1.20D-07 NDo=     1
 LinEq1:  Iter=  2 NonCon=     1 RMS=7.94D-09 Max=8.24D-08 NDo=     1
 LinEq1:  Iter=  3 NonCon=     1 RMS=3.58D-09 Max=3.75D-08 NDo=     1
 LinEq1:  Iter=  4 NonCon=     1 RMS=2.42D-09 Max=1.91D-08 NDo=     1
 LinEq1:  Iter=  5 NonCon=     1 RMS=8.59D-10 Max=6.29D-09 NDo=     1
 LinEq1:  Iter=  6 NonCon=     1 RMS=4.77D-10 Max=5.04D-09 NDo=     1
 LinEq1:  Iter=  7 NonCon=     1 RMS=3.49D-10 Max=2.58D-09 NDo=     1
 LinEq1:  Iter=  8 NonCon=     1 RMS=8.96D-11 Max=6.67D-10 NDo=     1
 LinEq1:  Iter=  9 NonCon=     0 RMS=1.34D-11 Max=1.22D-10 NDo=     1
 Linear equations converged to 3.053D-11 3.053D-10 after     9 iterations.
 QCLLim is confused:  Bigger=T Turned=T
 NLin=  3 IMin12=  1  2 I12=  0  2 IX=  1 XLMin= 0.000D+00 XLMax= 0.000D+00
 X = 0.000D+00 1.000D+00 2.000D+00
 DE= 0.000D+00 4.150D-12 3.340D-11
 LinEq1:  Iter=  0 NonCon=     1 RMS=7.60D-08 Max=5.32D-07 NDo=     1
 LinEq1:  Iter=  1 NonCon=     1 RMS=1.62D-08 Max=1.55D-07 NDo=     1
 LinEq1:  Iter=  2 NonCon=     1 RMS=6.76D-09 Max=5.60D-08 NDo=     1
 LinEq1:  Iter=  3 NonCon=     1 RMS=4.14D-09 Max=2.71D-08 NDo=     1
 LinEq1:  Iter=  4 NonCon=     1 RMS=1.89D-09 Max=1.61D-08 NDo=     1
 LinEq1:  Iter=  5 NonCon=     1 RMS=5.37D-10 Max=5.81D-09 NDo=     1
 LinEq1:  Iter=  6 NonCon=     1 RMS=4.46D-10 Max=5.35D-09 NDo=     1
 LinEq1:  Iter=  7 NonCon=     1 RMS=2.90D-10 Max=2.13D-09 NDo=     1
 LinEq1:  Iter=  8 NonCon=     0 RMS=3.90D-11 Max=2.94D-10 NDo=     1
 Linear equations converged to 3.935D-11 3.935D-10 after     8 iterations.
 LinEq1:  Iter=  0 NonCon=     1 RMS=5.13D-08 Max=3.88D-07 NDo=     1
 LinEq1:  Iter=  1 NonCon=     1 RMS=1.54D-08 Max=1.32D-07 NDo=     1
 LinEq1:  Iter=  2 NonCon=     1 RMS=1.04D-08 Max=1.26D-07 NDo=     1
 LinEq1:  Iter=  3 NonCon=     1 RMS=6.40D-09 Max=6.92D-08 NDo=     1
 LinEq1:  Iter=  4 NonCon=     1 RMS=2.58D-09 Max=1.43D-08 NDo=     1
 LinEq1:  Iter=  5 NonCon=     1 RMS=1.29D-09 Max=9.22D-09 NDo=     1
 LinEq1:  Iter=  6 NonCon=     1 RMS=6.76D-10 Max=8.08D-09 NDo=     1
 LinEq1:  Iter=  7 NonCon=     1 RMS=2.73D-10 Max=1.76D-09 NDo=     1
 LinEq1:  Iter=  8 NonCon=     1 RMS=4.27D-11 Max=4.12D-10 NDo=     1
 LinEq1:  Iter=  9 NonCon=     0 RMS=6.71D-12 Max=5.29D-11 NDo=     1
 Linear equations converged to 3.509D-11 3.509D-10 after     9 iterations.
 LinEq1:  Iter=  0 NonCon=     1 RMS=5.64D-08 Max=3.71D-07 NDo=     1
 LinEq1:  Iter=  1 NonCon=     1 RMS=1.72D-08 Max=1.43D-07 NDo=     1
 LinEq1:  Iter=  2 NonCon=     1 RMS=1.10D-08 Max=1.30D-07 NDo=     1
 LinEq1:  Iter=  3 NonCon=     1 RMS=6.10D-09 Max=6.77D-08 NDo=     1
 LinEq1:  Iter=  4 NonCon=     1 RMS=2.77D-09 Max=2.33D-08 NDo=     1
 LinEq1:  Iter=  5 NonCon=     1 RMS=1.26D-09 Max=7.59D-09 NDo=     1
 LinEq1:  Iter=  6 NonCon=     1 RMS=7.02D-10 Max=7.45D-09 NDo=     1
 LinEq1:  Iter=  7 NonCon=     1 RMS=4.11D-10 Max=3.81D-09 NDo=     1
 LinEq1:  Iter=  8 NonCon=     1 RMS=7.30D-11 Max=3.96D-10 NDo=     1
 LinEq1:  Iter=  9 NonCon=     0 RMS=1.25D-11 Max=8.53D-11 NDo=     1
 Linear equations converged to 2.054D-11 2.054D-10 after     9 iterations.
 QCLLim is confused:  Bigger=T Turned=T
 NLin=  3 IMin12=  1  2 I12=  0  2 IX=  1 XLMin= 0.000D+00 XLMax= 0.000D+00
 X = 0.000D+00 1.000D+00 2.000D+00
 DE= 0.000D+00 7.901D-12 4.533D-11
 LinEq1:  Iter=  0 NonCon=     1 RMS=5.94D-08 Max=4.37D-07 NDo=     1
 LinEq1:  Iter=  1 NonCon=     1 RMS=1.69D-08 Max=1.24D-07 NDo=     1
 LinEq1:  Iter=  2 NonCon=     1 RMS=9.53D-09 Max=1.12D-07 NDo=     1
 LinEq1:  Iter=  3 NonCon=     1 RMS=4.75D-09 Max=5.65D-08 NDo=     1
 LinEq1:  Iter=  4 NonCon=     1 RMS=2.49D-09 Max=2.26D-08 NDo=     1
 LinEq1:  Iter=  5 NonCon=     1 RMS=8.16D-10 Max=6.01D-09 NDo=     1
 LinEq1:  Iter=  6 NonCon=     1 RMS=4.25D-10 Max=4.83D-09 NDo=     1
 LinEq1:  Iter=  7 NonCon=     1 RMS=3.06D-10 Max=2.08D-09 NDo=     1
 LinEq1:  Iter=  8 NonCon=     1 RMS=7.94D-11 Max=4.66D-10 NDo=     1
 LinEq1:  Iter=  9 NonCon=     0 RMS=1.14D-11 Max=1.04D-10 NDo=     1
 Linear equations converged to 2.376D-11 2.376D-10 after     9 iterations.
 QCLLim is confused:  Bigger=T Turned=T
 NLin=  3 IMin12=  1  2 I12=  0  2 IX=  1 XLMin= 0.000D+00 XLMax= 0.000D+00
 X = 0.000D+00 1.000D+00 2.000D+00
 DE= 0.000D+00 3.908D-12 2.846D-11
 LinEq1:  Iter=  0 NonCon=     1 RMS=6.58D-08 Max=3.94D-07 NDo=     1
 LinEq1:  Iter=  1 NonCon=     1 RMS=1.46D-08 Max=1.25D-07 NDo=     1
 LinEq1:  Iter=  2 NonCon=     1 RMS=6.83D-09 Max=8.31D-08 NDo=     1
 LinEq1:  Iter=  3 NonCon=     1 RMS=5.01D-09 Max=6.49D-08 NDo=     1
 LinEq1:  Iter=  4 NonCon=     1 RMS=2.47D-09 Max=2.32D-08 NDo=     1
 LinEq1:  Iter=  5 NonCon=     1 RMS=5.32D-10 Max=3.61D-09 NDo=     1
 LinEq1:  Iter=  6 NonCon=     1 RMS=3.59D-10 Max=3.23D-09 NDo=     1
 LinEq1:  Iter=  7 NonCon=     1 RMS=2.22D-10 Max=1.54D-09 NDo=     1
 LinEq1:  Iter=  8 NonCon=     1 RMS=3.84D-11 Max=2.29D-10 NDo=     1
 LinEq1:  Iter=  9 NonCon=     0 RMS=7.52D-12 Max=8.88D-11 NDo=     1
 Linear equations converged to 2.781D-11 2.781D-10 after     9 iterations.
 QCLLim is confused:  Bigger=T Turned=T
 NLin=  3 IMin12=  1  2 I12=  0  2 IX=  1 XLMin= 0.000D+00 XLMax= 0.000D+00
 X = 0.000D+00 1.000D+00 2.000D+00
 DE= 0.000D+00 9.864D-11 4.359D-10
 LinEq1:  Iter=  0 NonCon=     1 RMS=7.77D-08 Max=5.48D-07 NDo=     1
 LinEq1:  Iter=  1 NonCon=     1 RMS=2.16D-08 Max=2.08D-07 NDo=     1
 LinEq1:  Iter=  2 NonCon=     1 RMS=8.18D-09 Max=8.46D-08 NDo=     1
 LinEq1:  Iter=  3 NonCon=     1 RMS=4.90D-09 Max=5.95D-08 NDo=     1
 LinEq1:  Iter=  4 NonCon=     1 RMS=3.53D-09 Max=2.92D-08 NDo=     1
 LinEq1:  Iter=  5 NonCon=     1 RMS=1.12D-09 Max=5.86D-09 NDo=     1
 LinEq1:  Iter=  6 NonCon=     1 RMS=4.00D-10 Max=3.74D-09 NDo=     1
 LinEq1:  Iter=  7 NonCon=     1 RMS=3.29D-10 Max=2.11D-09 NDo=     1
 LinEq1:  Iter=  8 NonCon=     1 RMS=6.84D-11 Max=4.82D-10 NDo=     1
 LinEq1:  Iter=  9 NonCon=     0 RMS=1.14D-11 Max=9.52D-11 NDo=     1
 Linear equations converged to 3.309D-11 3.309D-10 after     9 iterations.
 QCLLim is confused:  Bigger=T Turned=T
 NLin=  3 IMin12=  1  2 I12=  0  2 IX=  1 XLMin= 0.000D+00 XLMax= 0.000D+00
 X = 0.000D+00 1.000D+00 2.000D+00
 DE= 0.000D+00 7.034D-12 4.796D-11
 LinEq1:  Iter=  0 NonCon=     1 RMS=8.15D-08 Max=4.49D-07 NDo=     1
 LinEq1:  Iter=  1 NonCon=     1 RMS=2.01D-08 Max=1.60D-07 NDo=     1
 LinEq1:  Iter=  2 NonCon=     1 RMS=8.51D-09 Max=9.13D-08 NDo=     1
 LinEq1:  Iter=  3 NonCon=     1 RMS=5.18D-09 Max=6.15D-08 NDo=     1
 LinEq1:  Iter=  4 NonCon=     1 RMS=3.46D-09 Max=2.78D-08 NDo=     1
 LinEq1:  Iter=  5 NonCon=     1 RMS=1.24D-09 Max=7.38D-09 NDo=     1
 LinEq1:  Iter=  6 NonCon=     1 RMS=6.01D-10 Max=4.95D-09 NDo=     1
 LinEq1:  Iter=  7 NonCon=     1 RMS=4.57D-10 Max=4.03D-09 NDo=     1
 LinEq1:  Iter=  8 NonCon=     1 RMS=1.09D-10 Max=6.14D-10 NDo=     1
 LinEq1:  Iter=  9 NonCon=     0 RMS=2.30D-11 Max=1.66D-10 NDo=     1
 Linear equations converged to 3.303D-11 3.303D-10 after     9 iterations.
 QCLLim is confused:  Bigger=T Turned=T
 NLin=  3 IMin12=  1  2 I12=  0  2 IX=  1 XLMin= 0.000D+00 XLMax= 0.000D+00
 X = 0.000D+00 1.000D+00 2.000D+00
 DE= 0.000D+00 1.990D-13 1.421D-11
 LinEq1:  Iter=  0 NonCon=     1 RMS=6.90D-08 Max=4.58D-07 NDo=     1
 LinEq1:  Iter=  1 NonCon=     1 RMS=1.60D-08 Max=1.48D-07 NDo=     1
 LinEq1:  Iter=  2 NonCon=     1 RMS=5.29D-09 Max=6.24D-08 NDo=     1
 LinEq1:  Iter=  3 NonCon=     1 RMS=3.92D-09 Max=3.50D-08 NDo=     1
 LinEq1:  Iter=  4 NonCon=     1 RMS=2.38D-09 Max=1.80D-08 NDo=     1
 LinEq1:  Iter=  5 NonCon=     1 RMS=1.08D-09 Max=7.68D-09 NDo=     1
 LinEq1:  Iter=  6 NonCon=     1 RMS=3.90D-10 Max=3.37D-09 NDo=     1
 LinEq1:  Iter=  7 NonCon=     1 RMS=1.25D-10 Max=9.48D-10 NDo=     1
 LinEq1:  Iter=  8 NonCon=     1 RMS=5.57D-11 Max=4.58D-10 NDo=     1
 LinEq1:  Iter=  9 NonCon=     0 RMS=1.61D-11 Max=1.37D-10 NDo=     1
 Linear equations converged to 3.025D-11 3.025D-10 after     9 iterations.
 QCLLim is confused:  Bigger=T Turned=T
 NLin=  3 IMin12=  1  2 I12=  0  2 IX=  1 XLMin= 0.000D+00 XLMax= 0.000D+00
 X = 0.000D+00 1.000D+00 2.000D+00
 DE= 0.000D+00 1.620D-12 2.733D-11
 LinEq1:  Iter=  0 NonCon=     1 RMS=8.30D-08 Max=5.67D-07 NDo=     1
 LinEq1:  Iter=  1 NonCon=     1 RMS=2.31D-08 Max=1.77D-07 NDo=     1
 LinEq1:  Iter=  2 NonCon=     1 RMS=1.06D-08 Max=9.51D-08 NDo=     1
 LinEq1:  Iter=  3 NonCon=     1 RMS=4.89D-09 Max=3.46D-08 NDo=     1
 LinEq1:  Iter=  4 NonCon=     1 RMS=2.39D-09 Max=1.73D-08 NDo=     1
 LinEq1:  Iter=  5 NonCon=     1 RMS=1.08D-09 Max=9.14D-09 NDo=     1
 LinEq1:  Iter=  6 NonCon=     1 RMS=7.08D-10 Max=7.90D-09 NDo=     1
 LinEq1:  Iter=  7 NonCon=     1 RMS=4.39D-10 Max=4.04D-09 NDo=     1
 LinEq1:  Iter=  8 NonCon=     1 RMS=1.01D-10 Max=7.42D-10 NDo=     1
 LinEq1:  Iter=  9 NonCon=     0 RMS=2.52D-11 Max=1.44D-10 NDo=     1
 Linear equations converged to 3.089D-11 3.089D-10 after     9 iterations.
 QCLLim is confused:  Bigger=T Turned=T
 NLin=  3 IMin12=  1  2 I12=  0  2 IX=  1 XLMin= 0.000D+00 XLMax= 0.000D+00
 X = 0.000D+00 1.000D+00 2.000D+00
 DE= 0.000D+00 1.705D-13 1.398D-11
 LinEq1:  Iter=  0 NonCon=     1 RMS=6.74D-08 Max=4.86D-07 NDo=     1
 LinEq1:  Iter=  1 NonCon=     1 RMS=1.78D-08 Max=1.52D-07 NDo=     1
 LinEq1:  Iter=  2 NonCon=     1 RMS=7.33D-09 Max=6.19D-08 NDo=     1
 LinEq1:  Iter=  3 NonCon=     1 RMS=3.37D-09 Max=2.34D-08 NDo=     1
 LinEq1:  Iter=  4 NonCon=     1 RMS=1.90D-09 Max=1.35D-08 NDo=     1
 LinEq1:  Iter=  5 NonCon=     1 RMS=7.33D-10 Max=6.78D-09 NDo=     1
 LinEq1:  Iter=  6 NonCon=     1 RMS=5.04D-10 Max=5.36D-09 NDo=     1
 LinEq1:  Iter=  7 NonCon=     1 RMS=3.97D-10 Max=2.98D-09 NDo=     1
 LinEq1:  Iter=  8 NonCon=     1 RMS=6.16D-11 Max=4.46D-10 NDo=     1
 LinEq1:  Iter=  9 NonCon=     0 RMS=3.19D-12 Max=3.28D-11 NDo=     1
 Linear equations converged to 3.020D-11 3.020D-10 after     9 iterations.
 Incorrect curvature in search direction -- initial direction reversed.
 LinEq1:  Iter=  0 NonCon=     1 RMS=2.53D-07 Max=2.16D-06 NDo=     1
 LinEq1:  Iter=  1 NonCon=     1 RMS=4.10D-08 Max=4.28D-07 NDo=     1
 LinEq1:  Iter=  2 NonCon=     1 RMS=1.73D-08 Max=1.41D-07 NDo=     1
 LinEq1:  Iter=  3 NonCon=     1 RMS=1.37D-08 Max=1.31D-07 NDo=     1
 LinEq1:  Iter=  4 NonCon=     1 RMS=5.95D-09 Max=5.33D-08 NDo=     1
 LinEq1:  Iter=  5 NonCon=     1 RMS=3.38D-09 Max=3.06D-08 NDo=     1
 LinEq1:  Iter=  6 NonCon=     1 RMS=1.34D-09 Max=9.21D-09 NDo=     1
 LinEq1:  Iter=  7 NonCon=     1 RMS=6.81D-10 Max=8.37D-09 NDo=     1
 LinEq1:  Iter=  8 NonCon=     1 RMS=1.55D-10 Max=1.43D-09 NDo=     1
 LinEq1:  Iter=  9 NonCon=     0 RMS=1.74D-11 Max=1.00D-10 NDo=     1
 Linear equations converged to 7.289D-11 7.289D-10 after     9 iterations.
 QCLLim is confused:  Bigger=T Turned=T
 NLin=  3 IMin12=  1  2 I12=  0  2 IX=  1 XLMin= 0.000D+00 XLMax= 0.000D+00
 X = 0.000D+00 1.000D+00 2.000D+00
 DE= 0.000D+00 4.107D-11 2.266D-10
 LinEq1:  Iter=  0 NonCon=     1 RMS=2.13D-07 Max=1.60D-06 NDo=     1
 LinEq1:  Iter=  1 NonCon=     1 RMS=3.58D-08 Max=3.41D-07 NDo=     1
 LinEq1:  Iter=  2 NonCon=     1 RMS=1.67D-08 Max=1.10D-07 NDo=     1
 LinEq1:  Iter=  3 NonCon=     1 RMS=9.87D-09 Max=1.11D-07 NDo=     1
 LinEq1:  Iter=  4 NonCon=     1 RMS=5.36D-09 Max=4.22D-08 NDo=     1
 LinEq1:  Iter=  5 NonCon=     1 RMS=3.64D-09 Max=3.35D-08 NDo=     1
 LinEq1:  Iter=  6 NonCon=     1 RMS=9.69D-10 Max=5.76D-09 NDo=     1
 LinEq1:  Iter=  7 NonCon=     1 RMS=2.88D-10 Max=2.69D-09 NDo=     1
 LinEq1:  Iter=  8 NonCon=     0 RMS=9.80D-11 Max=5.01D-10 NDo=     1
 Linear equations converged to 1.023D-10 1.023D-09 after     8 iterations.
 LinEq1:  Iter=  0 NonCon=     1 RMS=3.78D-08 Max=1.94D-07 NDo=     1
 LinEq1:  Iter=  1 NonCon=     1 RMS=1.22D-08 Max=9.94D-08 NDo=     1
 LinEq1:  Iter=  2 NonCon=     1 RMS=6.52D-09 Max=4.49D-08 NDo=     1
 LinEq1:  Iter=  3 NonCon=     1 RMS=3.47D-09 Max=2.61D-08 NDo=     1
 LinEq1:  Iter=  4 NonCon=     1 RMS=1.33D-09 Max=1.00D-08 NDo=     1
 LinEq1:  Iter=  5 NonCon=     1 RMS=7.05D-10 Max=7.21D-09 NDo=     1
 LinEq1:  Iter=  6 NonCon=     1 RMS=6.34D-10 Max=6.62D-09 NDo=     1
 LinEq1:  Iter=  7 NonCon=     1 RMS=2.35D-10 Max=1.78D-09 NDo=     1
 LinEq1:  Iter=  8 NonCon=     1 RMS=4.76D-11 Max=4.26D-10 NDo=     1
 LinEq1:  Iter=  9 NonCon=     0 RMS=7.20D-12 Max=4.80D-11 NDo=     1
 Linear equations converged to 1.986D-11 1.986D-10 after     9 iterations.
 LinEq1:  Iter=  0 NonCon=     1 RMS=7.52D-08 Max=5.69D-07 NDo=     1
 LinEq1:  Iter=  1 NonCon=     1 RMS=1.89D-08 Max=1.57D-07 NDo=     1
 LinEq1:  Iter=  2 NonCon=     1 RMS=8.38D-09 Max=7.13D-08 NDo=     1
 LinEq1:  Iter=  3 NonCon=     1 RMS=6.86D-09 Max=5.48D-08 NDo=     1
 LinEq1:  Iter=  4 NonCon=     1 RMS=2.93D-09 Max=2.42D-08 NDo=     1
 LinEq1:  Iter=  5 NonCon=     1 RMS=1.78D-09 Max=1.31D-08 NDo=     1
 LinEq1:  Iter=  6 NonCon=     1 RMS=5.80D-10 Max=4.47D-09 NDo=     1
 LinEq1:  Iter=  7 NonCon=     1 RMS=3.40D-10 Max=2.51D-09 NDo=     1
 LinEq1:  Iter=  8 NonCon=     1 RMS=9.09D-11 Max=8.39D-10 NDo=     1
 LinEq1:  Iter=  9 NonCon=     0 RMS=1.12D-11 Max=8.31D-11 NDo=     1
 Linear equations converged to 4.382D-11 4.382D-10 after     9 iterations.
 QCLLim is confused:  Bigger=T Turned=T
 NLin=  3 IMin12=  1  2 I12=  0  2 IX=  1 XLMin= 0.000D+00 XLMax= 0.000D+00
 X = 0.000D+00 1.000D+00 2.000D+00
 DE= 0.000D+00 2.485D-11 1.380D-10
 LinEq1:  Iter=  0 NonCon=     1 RMS=8.75D-08 Max=5.07D-07 NDo=     1
 LinEq1:  Iter=  1 NonCon=     1 RMS=2.02D-08 Max=1.61D-07 NDo=     1
 LinEq1:  Iter=  2 NonCon=     1 RMS=9.32D-09 Max=8.34D-08 NDo=     1
 LinEq1:  Iter=  3 NonCon=     1 RMS=6.89D-09 Max=6.25D-08 NDo=     1
 LinEq1:  Iter=  4 NonCon=     1 RMS=3.40D-09 Max=2.91D-08 NDo=     1
 LinEq1:  Iter=  5 NonCon=     1 RMS=1.80D-09 Max=1.39D-08 NDo=     1
 LinEq1:  Iter=  6 NonCon=     1 RMS=8.02D-10 Max=6.68D-09 NDo=     1
 LinEq1:  Iter=  7 NonCon=     1 RMS=5.07D-10 Max=4.18D-09 NDo=     1
 LinEq1:  Iter=  8 NonCon=     1 RMS=1.23D-10 Max=7.35D-10 NDo=     1
 LinEq1:  Iter=  9 NonCon=     0 RMS=2.17D-11 Max=1.38D-10 NDo=     1
 Linear equations converged to 4.726D-11 4.726D-10 after     9 iterations.
 QCLLim is confused:  Bigger=T Turned=T
 NLin=  3 IMin12=  1  2 I12=  0  2 IX=  1 XLMin= 0.000D+00 XLMax= 0.000D+00
 X = 0.000D+00 1.000D+00 2.000D+00
 DE= 0.000D+00 7.503D-12 5.153D-11
 LinEq1:  Iter=  0 NonCon=     1 RMS=8.44D-08 Max=5.43D-07 NDo=     1
 LinEq1:  Iter=  1 NonCon=     1 RMS=1.94D-08 Max=1.69D-07 NDo=     1
 LinEq1:  Iter=  2 NonCon=     1 RMS=7.67D-09 Max=7.84D-08 NDo=     1
 LinEq1:  Iter=  3 NonCon=     1 RMS=5.20D-09 Max=6.46D-08 NDo=     1
 LinEq1:  Iter=  4 NonCon=     1 RMS=3.29D-09 Max=2.92D-08 NDo=     1
 LinEq1:  Iter=  5 NonCon=     1 RMS=5.05D-10 Max=3.35D-09 NDo=     1
 LinEq1:  Iter=  6 NonCon=     1 RMS=3.51D-10 Max=2.83D-09 NDo=     1
 LinEq1:  Iter=  7 NonCon=     1 RMS=1.95D-10 Max=1.20D-09 NDo=     1
 LinEq1:  Iter=  8 NonCon=     1 RMS=7.70D-11 Max=7.02D-10 NDo=     1
 LinEq1:  Iter=  9 NonCon=     0 RMS=1.35D-11 Max=8.15D-11 NDo=     1
 Linear equations converged to 3.548D-11 3.548D-10 after     9 iterations.
 QCLLim is confused:  Bigger=T Turned=T
 NLin=  3 IMin12=  1  2 I12=  0  2 IX=  1 XLMin= 0.000D+00 XLMax= 0.000D+00
 X = 0.000D+00 1.000D+00 2.000D+00
 DE= 0.000D+00 9.578D-12 6.925D-11
 LinEq1:  Iter=  0 NonCon=     1 RMS=9.63D-08 Max=6.18D-07 NDo=     1
 LinEq1:  Iter=  1 NonCon=     1 RMS=2.12D-08 Max=1.82D-07 NDo=     1
 LinEq1:  Iter=  2 NonCon=     1 RMS=7.43D-09 Max=8.04D-08 NDo=     1
 LinEq1:  Iter=  3 NonCon=     1 RMS=4.91D-09 Max=4.89D-08 NDo=     1
 LinEq1:  Iter=  4 NonCon=     1 RMS=3.70D-09 Max=2.93D-08 NDo=     1
 LinEq1:  Iter=  5 NonCon=     1 RMS=1.24D-09 Max=8.34D-09 NDo=     1
 LinEq1:  Iter=  6 NonCon=     1 RMS=4.77D-10 Max=3.34D-09 NDo=     1
 LinEq1:  Iter=  7 NonCon=     1 RMS=3.43D-10 Max=3.04D-09 NDo=     1
 LinEq1:  Iter=  8 NonCon=     1 RMS=1.17D-10 Max=5.96D-10 NDo=     1
 LinEq1:  Iter=  9 NonCon=     0 RMS=2.63D-11 Max=1.66D-10 NDo=     1
 Linear equations converged to 3.789D-11 3.789D-10 after     9 iterations.
 QCLLim is confused:  Bigger=T Turned=T
 NLin=  3 IMin12=  1  2 I12=  0  2 IX=  1 XLMin= 0.000D+00 XLMax= 0.000D+00
 X = 0.000D+00 1.000D+00 2.000D+00
 DE= 0.000D+00 5.002D-12 4.067D-11
 LinEq1:  Iter=  0 NonCon=     1 RMS=8.68D-08 Max=6.23D-07 NDo=     1
 LinEq1:  Iter=  1 NonCon=     1 RMS=1.99D-08 Max=1.85D-07 NDo=     1
 LinEq1:  Iter=  2 NonCon=     1 RMS=7.59D-09 Max=7.83D-08 NDo=     1
 LinEq1:  Iter=  3 NonCon=     1 RMS=6.31D-09 Max=5.64D-08 NDo=     1
 LinEq1:  Iter=  4 NonCon=     1 RMS=3.31D-09 Max=2.69D-08 NDo=     1
 LinEq1:  Iter=  5 NonCon=     1 RMS=1.80D-09 Max=1.44D-08 NDo=     1
 LinEq1:  Iter=  6 NonCon=     1 RMS=4.02D-10 Max=3.34D-09 NDo=     1
 LinEq1:  Iter=  7 NonCon=     1 RMS=2.24D-10 Max=2.02D-09 NDo=     1
 LinEq1:  Iter=  8 NonCon=     1 RMS=7.09D-11 Max=4.15D-10 NDo=     1
 LinEq1:  Iter=  9 NonCon=     0 RMS=1.15D-11 Max=1.01D-10 NDo=     1
 Linear equations converged to 3.543D-11 3.543D-10 after     9 iterations.
 QCLLim is confused:  Bigger=T Turned=T
 NLin=  3 IMin12=  1  2 I12=  0  2 IX=  1 XLMin= 0.000D+00 XLMax= 0.000D+00
 X = 0.000D+00 1.000D+00 2.000D+00
 DE= 0.000D+00 2.414D-11 1.417D-10
 LinEq1:  Iter=  0 NonCon=     1 RMS=1.20D-07 Max=7.94D-07 NDo=     1
 LinEq1:  Iter=  1 NonCon=     1 RMS=2.40D-08 Max=2.42D-07 NDo=     1
 LinEq1:  Iter=  2 NonCon=     1 RMS=8.29D-09 Max=8.23D-08 NDo=     1
 LinEq1:  Iter=  3 NonCon=     1 RMS=6.49D-09 Max=6.26D-08 NDo=     1
 LinEq1:  Iter=  4 NonCon=     1 RMS=4.00D-09 Max=2.88D-08 NDo=     1
 LinEq1:  Iter=  5 NonCon=     1 RMS=1.92D-09 Max=1.42D-08 NDo=     1
 LinEq1:  Iter=  6 NonCon=     1 RMS=8.80D-10 Max=6.41D-09 NDo=     1
 LinEq1:  Iter=  7 NonCon=     1 RMS=3.22D-10 Max=3.14D-09 NDo=     1
 LinEq1:  Iter=  8 NonCon=     1 RMS=1.33D-10 Max=6.66D-10 NDo=     1
 LinEq1:  Iter=  9 NonCon=     0 RMS=2.96D-11 Max=1.78D-10 NDo=     1
 Linear equations converged to 3.990D-11 3.990D-10 after     9 iterations.
 QCLLim is confused:  Bigger=T Turned=T
 NLin=  3 IMin12=  1  2 I12=  0  2 IX=  1 XLMin= 0.000D+00 XLMax= 0.000D+00
 X = 0.000D+00 1.000D+00 2.000D+00
 DE= 0.000D+00 5.912D-12 4.776D-11
 LinEq1:  Iter=  0 NonCon=     1 RMS=9.97D-08 Max=6.46D-07 NDo=     1
 LinEq1:  Iter=  1 NonCon=     1 RMS=2.26D-08 Max=2.03D-07 NDo=     1
 LinEq1:  Iter=  2 NonCon=     1 RMS=8.15D-09 Max=7.69D-08 NDo=     1
 LinEq1:  Iter=  3 NonCon=     1 RMS=6.28D-09 Max=6.20D-08 NDo=     1
 LinEq1:  Iter=  4 NonCon=     1 RMS=3.62D-09 Max=2.84D-08 NDo=     1
 LinEq1:  Iter=  5 NonCon=     1 RMS=1.64D-09 Max=1.21D-08 NDo=     1
 LinEq1:  Iter=  6 NonCon=     1 RMS=6.39D-10 Max=5.15D-09 NDo=     1
 LinEq1:  Iter=  7 NonCon=     1 RMS=3.38D-10 Max=2.15D-09 NDo=     1
 LinEq1:  Iter=  8 NonCon=     1 RMS=9.81D-11 Max=9.03D-10 NDo=     1
 LinEq1:  Iter=  9 NonCon=     0 RMS=2.22D-11 Max=1.39D-10 NDo=     1
 Linear equations converged to 4.096D-11 4.096D-10 after     9 iterations.
 QCLLim is confused:  Bigger=T Turned=T
 NLin=  3 IMin12=  1  2 I12=  0  2 IX=  1 XLMin= 0.000D+00 XLMax= 0.000D+00
 X = 0.000D+00 1.000D+00 2.000D+00
 DE= 0.000D+00 6.366D-12 5.147D-11
 LinEq1:  Iter=  0 NonCon=     1 RMS=9.64D-08 Max=6.49D-07 NDo=     1
 LinEq1:  Iter=  1 NonCon=     1 RMS=2.34D-08 Max=2.22D-07 NDo=     1
 LinEq1:  Iter=  2 NonCon=     1 RMS=7.73D-09 Max=8.71D-08 NDo=     1
 LinEq1:  Iter=  3 NonCon=     1 RMS=5.34D-09 Max=5.01D-08 NDo=     1
 LinEq1:  Iter=  4 NonCon=     1 RMS=3.83D-09 Max=2.85D-08 NDo=     1
 LinEq1:  Iter=  5 NonCon=     1 RMS=1.57D-09 Max=8.63D-09 NDo=     1
 LinEq1:  Iter=  6 NonCon=     1 RMS=6.64D-10 Max=4.01D-09 NDo=     1
 LinEq1:  Iter=  7 NonCon=     1 RMS=1.58D-10 Max=1.29D-09 NDo=     1
 LinEq1:  Iter=  8 NonCon=     1 RMS=6.91D-11 Max=5.34D-10 NDo=     1
 LinEq1:  Iter=  9 NonCon=     0 RMS=1.83D-11 Max=1.32D-10 NDo=     1
 Linear equations converged to 3.970D-11 3.970D-10 after     9 iterations.
 QCLLim is confused:  Bigger=T Turned=T
 NLin=  3 IMin12=  1  2 I12=  0  2 IX=  1 XLMin= 0.000D+00 XLMax= 0.000D+00
 X = 0.000D+00 1.000D+00 2.000D+00
 DE= 0.000D+00 3.277D-11 1.894D-10
 LinEq1:  Iter=  0 NonCon=     1 RMS=1.15D-07 Max=7.35D-07 NDo=     1
 LinEq1:  Iter=  1 NonCon=     1 RMS=3.06D-08 Max=2.02D-07 NDo=     1
 LinEq1:  Iter=  2 NonCon=     1 RMS=1.39D-08 Max=1.40D-07 NDo=     1
 LinEq1:  Iter=  3 NonCon=     1 RMS=6.75D-09 Max=6.57D-08 NDo=     1
 LinEq1:  Iter=  4 NonCon=     1 RMS=3.95D-09 Max=2.89D-08 NDo=     1
 LinEq1:  Iter=  5 NonCon=     1 RMS=1.59D-09 Max=9.59D-09 NDo=     1
 LinEq1:  Iter=  6 NonCon=     1 RMS=9.30D-10 Max=9.95D-09 NDo=     1
 LinEq1:  Iter=  7 NonCon=     1 RMS=6.13D-10 Max=5.78D-09 NDo=     1
 LinEq1:  Iter=  8 NonCon=     1 RMS=1.57D-10 Max=1.03D-09 NDo=     1
 LinEq1:  Iter=  9 NonCon=     0 RMS=3.45D-11 Max=2.54D-10 NDo=     1
 Linear equations converged to 4.360D-11 4.360D-10 after     9 iterations.
 LinEq1:  Iter=  0 NonCon=     1 RMS=1.50D-07 Max=1.10D-06 NDo=     1
 LinEq1:  Iter=  1 NonCon=     1 RMS=3.24D-08 Max=2.25D-07 NDo=     1
 LinEq1:  Iter=  2 NonCon=     1 RMS=8.81D-09 Max=8.67D-08 NDo=     1
 LinEq1:  Iter=  3 NonCon=     1 RMS=6.22D-09 Max=6.41D-08 NDo=     1
 LinEq1:  Iter=  4 NonCon=     1 RMS=3.90D-09 Max=2.80D-08 NDo=     1
 LinEq1:  Iter=  5 NonCon=     1 RMS=1.61D-09 Max=1.18D-08 NDo=     1
 LinEq1:  Iter=  6 NonCon=     1 RMS=9.34D-10 Max=7.24D-09 NDo=     1
 LinEq1:  Iter=  7 NonCon=     1 RMS=3.84D-10 Max=3.63D-09 NDo=     1
 LinEq1:  Iter=  8 NonCon=     1 RMS=1.68D-10 Max=1.12D-09 NDo=     1
 LinEq1:  Iter=  9 NonCon=     1 RMS=4.53D-11 Max=2.89D-10 NDo=     1
 LinEq1:  Iter= 10 NonCon=     0 RMS=4.88D-13 Max=3.05D-12 NDo=     1
 Linear equations converged to 4.498D-11 4.498D-10 after    10 iterations.
 Incorrect curvature in search direction -- initial direction reversed.
     Accept linear search using points  2 and  3.
     Minimum is close to point  3 DX= -3.87D-02 DF= -7.67D-13 DXR=  1.97D-02 DFR=  1.12D-03 which will be used.
 LinEq1:  Iter=  0 NonCon=     1 RMS=9.63D-07 Max=7.22D-06 NDo=     1
 LinEq1:  Iter=  1 NonCon=     1 RMS=1.73D-07 Max=1.55D-06 NDo=     1
 LinEq1:  Iter=  2 NonCon=     1 RMS=9.54D-08 Max=8.60D-07 NDo=     1
 LinEq1:  Iter=  3 NonCon=     1 RMS=3.69D-08 Max=4.83D-07 NDo=     1
 LinEq1:  Iter=  4 NonCon=     1 RMS=1.72D-08 Max=1.32D-07 NDo=     1
 LinEq1:  Iter=  5 NonCon=     1 RMS=8.73D-09 Max=8.55D-08 NDo=     1
 LinEq1:  Iter=  6 NonCon=     1 RMS=3.72D-09 Max=2.67D-08 NDo=     1
 LinEq1:  Iter=  7 NonCon=     1 RMS=9.06D-10 Max=6.33D-09 NDo=     1
 LinEq1:  Iter=  8 NonCon=     0 RMS=3.61D-10 Max=3.31D-09 NDo=     1
 Linear equations converged to 7.713D-10 7.713D-09 after     8 iterations.
 LinEq1:  Iter=  0 NonCon=     1 RMS=2.40D-07 Max=2.21D-06 NDo=     1
 LinEq1:  Iter=  1 NonCon=     1 RMS=1.31D-07 Max=1.09D-06 NDo=     1
 LinEq1:  Iter=  2 NonCon=     1 RMS=3.78D-08 Max=2.92D-07 NDo=     1
 LinEq1:  Iter=  3 NonCon=     1 RMS=1.62D-08 Max=1.68D-07 NDo=     1
 LinEq1:  Iter=  4 NonCon=     1 RMS=5.63D-09 Max=3.50D-08 NDo=     1
 LinEq1:  Iter=  5 NonCon=     1 RMS=3.30D-09 Max=3.27D-08 NDo=     1
 LinEq1:  Iter=  6 NonCon=     1 RMS=2.94D-09 Max=3.14D-08 NDo=     1
 LinEq1:  Iter=  7 NonCon=     1 RMS=1.17D-09 Max=7.73D-09 NDo=     1
 LinEq1:  Iter=  8 NonCon=     1 RMS=1.90D-10 Max=1.68D-09 NDo=     1
 LinEq1:  Iter=  9 NonCon=     0 RMS=2.26D-11 Max=2.07D-10 NDo=     1
 Linear equations converged to 1.459D-10 1.459D-09 after     9 iterations.
 LinEq1:  Iter=  0 NonCon=     1 RMS=3.59D-07 Max=2.80D-06 NDo=     1
 LinEq1:  Iter=  1 NonCon=     1 RMS=1.60D-07 Max=1.31D-06 NDo=     1
 LinEq1:  Iter=  2 NonCon=     1 RMS=1.03D-07 Max=6.84D-07 NDo=     1
 LinEq1:  Iter=  3 NonCon=     1 RMS=5.09D-08 Max=4.00D-07 NDo=     1
 LinEq1:  Iter=  4 NonCon=     1 RMS=1.27D-08 Max=1.06D-07 NDo=     1
 LinEq1:  Iter=  5 NonCon=     1 RMS=3.80D-09 Max=3.13D-08 NDo=     1
 LinEq1:  Iter=  6 NonCon=     1 RMS=3.18D-09 Max=3.49D-08 NDo=     1
 LinEq1:  Iter=  7 NonCon=     1 RMS=2.17D-09 Max=2.00D-08 NDo=     1
 LinEq1:  Iter=  8 NonCon=     1 RMS=5.02D-10 Max=2.52D-09 NDo=     1
 LinEq1:  Iter=  9 NonCon=     0 RMS=7.36D-11 Max=5.74D-10 NDo=     1
 Linear equations converged to 3.633D-10 3.633D-09 after     9 iterations.
 LinEq1:  Iter=  0 NonCon=     1 RMS=3.54D-07 Max=2.87D-06 NDo=     1
 LinEq1:  Iter=  1 NonCon=     1 RMS=1.26D-07 Max=1.13D-06 NDo=     1
 LinEq1:  Iter=  2 NonCon=     1 RMS=5.40D-08 Max=4.17D-07 NDo=     1
 LinEq1:  Iter=  3 NonCon=     1 RMS=1.77D-08 Max=1.39D-07 NDo=     1
 LinEq1:  Iter=  4 NonCon=     1 RMS=1.01D-08 Max=8.06D-08 NDo=     1
 LinEq1:  Iter=  5 NonCon=     1 RMS=3.79D-09 Max=3.07D-08 NDo=     1
 LinEq1:  Iter=  6 NonCon=     1 RMS=2.81D-09 Max=3.57D-08 NDo=     1
 LinEq1:  Iter=  7 NonCon=     1 RMS=1.60D-09 Max=1.52D-08 NDo=     1
 LinEq1:  Iter=  8 NonCon=     1 RMS=3.56D-10 Max=2.32D-09 NDo=     1
 LinEq1:  Iter=  9 NonCon=     0 RMS=4.40D-11 Max=2.60D-10 NDo=     1
 Linear equations converged to 1.285D-10 1.285D-09 after     9 iterations.
 LinEq1:  Iter=  0 NonCon=     1 RMS=3.96D-07 Max=2.98D-06 NDo=     1
 LinEq1:  Iter=  1 NonCon=     1 RMS=1.26D-07 Max=1.05D-06 NDo=     1
 LinEq1:  Iter=  2 NonCon=     1 RMS=6.81D-08 Max=4.24D-07 NDo=     1
 LinEq1:  Iter=  3 NonCon=     1 RMS=3.67D-08 Max=2.48D-07 NDo=     1
 LinEq1:  Iter=  4 NonCon=     1 RMS=1.09D-08 Max=1.02D-07 NDo=     1
 LinEq1:  Iter=  5 NonCon=     1 RMS=2.81D-09 Max=2.35D-08 NDo=     1
 LinEq1:  Iter=  6 NonCon=     1 RMS=2.45D-09 Max=2.79D-08 NDo=     1
 LinEq1:  Iter=  7 NonCon=     1 RMS=1.69D-09 Max=1.28D-08 NDo=     1
 LinEq1:  Iter=  8 NonCon=     1 RMS=4.29D-10 Max=3.98D-09 NDo=     1
 LinEq1:  Iter=  9 NonCon=     0 RMS=8.72D-11 Max=5.20D-10 NDo=     1
 Linear equations converged to 1.901D-10 1.901D-09 after     9 iterations.
 LinEq1:  Iter=  0 NonCon=     1 RMS=3.71D-07 Max=3.22D-06 NDo=     1
 LinEq1:  Iter=  1 NonCon=     1 RMS=1.13D-07 Max=8.31D-07 NDo=     1
 LinEq1:  Iter=  2 NonCon=     1 RMS=5.58D-08 Max=4.37D-07 NDo=     1
 LinEq1:  Iter=  3 NonCon=     1 RMS=1.38D-08 Max=1.38D-07 NDo=     1
 LinEq1:  Iter=  4 NonCon=     1 RMS=5.49D-09 Max=4.49D-08 NDo=     1
 LinEq1:  Iter=  5 NonCon=     1 RMS=3.37D-09 Max=2.76D-08 NDo=     1
 LinEq1:  Iter=  6 NonCon=     1 RMS=1.87D-09 Max=2.57D-08 NDo=     1
 LinEq1:  Iter=  7 NonCon=     1 RMS=4.74D-10 Max=3.93D-09 NDo=     1
 LinEq1:  Iter=  8 NonCon=     1 RMS=2.56D-10 Max=2.45D-09 NDo=     1
 LinEq1:  Iter=  9 NonCon=     0 RMS=4.56D-11 Max=3.72D-10 NDo=     1
 Linear equations converged to 1.448D-10 1.448D-09 after     9 iterations.
 LinEq1:  Iter=  0 NonCon=     1 RMS=4.44D-07 Max=3.13D-06 NDo=     1
 LinEq1:  Iter=  1 NonCon=     1 RMS=1.23D-07 Max=7.97D-07 NDo=     1
 LinEq1:  Iter=  2 NonCon=     1 RMS=7.23D-08 Max=5.57D-07 NDo=     1
 LinEq1:  Iter=  3 NonCon=     1 RMS=4.97D-08 Max=3.13D-07 NDo=     1
 LinEq1:  Iter=  4 NonCon=     1 RMS=1.24D-08 Max=1.13D-07 NDo=     1
 LinEq1:  Iter=  5 NonCon=     1 RMS=4.63D-09 Max=4.69D-08 NDo=     1
 LinEq1:  Iter=  6 NonCon=     1 RMS=3.30D-09 Max=3.62D-08 NDo=     1
 LinEq1:  Iter=  7 NonCon=     1 RMS=2.02D-09 Max=1.90D-08 NDo=     1
 LinEq1:  Iter=  8 NonCon=     1 RMS=3.60D-10 Max=2.86D-09 NDo=     1
 LinEq1:  Iter=  9 NonCon=     0 RMS=1.07D-10 Max=8.04D-10 NDo=     1
 Linear equations converged to 1.684D-10 1.684D-09 after     9 iterations.
 LinEq1:  Iter=  0 NonCon=     1 RMS=3.92D-07 Max=3.32D-06 NDo=     1
[...]
 AX will form     9 AO Fock derivatives at one time.
      9 vectors produced by pass  1 Test12= 2.24D-15 8.33D-09 XBig12= 7.37D+00 1.84D+00.
      9 vectors produced by pass  2 Test12= 2.24D-15 8.33D-09 XBig12= 3.61D-03 2.11D-02.
      8 vectors produced by pass  3 Test12= 2.24D-15 8.33D-09 XBig12= 9.13D-05 4.27D-03.
      6 vectors produced by pass  4 Test12= 2.24D-15 8.33D-09 XBig12= 2.11D-07 2.77D-04.
      4 vectors produced by pass  5 Test12= 2.24D-15 8.33D-09 XBig12= 1.36D-09 1.57D-05.
      2 vectors produced by pass  6 Test12= 2.24D-15 8.33D-09 XBig12= 5.16D-12 9.25D-07.
      1 vectors produced by pass  7 Test12= 2.24D-15 8.33D-09 XBig12= 1.46D-14 4.22D-08.
 InvSVY:  IOpt=1 It=  1 EMax= 3.91D-15
 Solved reduced A of dimension    48 with     9 vectors.
 Isotropic polarizability for W=    0.000000        8.79 Bohr**3.
 End of Minotr F.D. properties file   721 does not exist.
 End of Minotr F.D. properties file   722 does not exist.
 End of Minotr F.D. properties file   788 does not exist.

 **********************************************************************

            Population analysis using the SCF Density.

 **********************************************************************

 Alpha  occ. eigenvalues --  -24.76470  -1.22333  -0.55530  -0.46736  -0.46683
 Alpha  occ. eigenvalues --   -0.33902
 Alpha virt. eigenvalues --   -0.08971   0.24642   0.30840   0.85882   0.90757
 Alpha virt. eigenvalues --    0.92370   1.01626   1.08946   1.19209   1.19212
 Alpha virt. eigenvalues --    1.43221   1.43225   1.86182   2.24098   2.48484
 Alpha virt. eigenvalues --    3.64697   3.66899   3.66922   3.73940   3.73975
 Alpha virt. eigenvalues --    5.85407   5.93347   5.94509  66.46581
  Beta  occ. eigenvalues --  -24.73312  -1.13254  -0.43571  -0.43517  -0.33899
  Beta virt. eigenvalues --   -0.26168  -0.08966   0.24654   0.30879   0.92257
  Beta virt. eigenvalues --    0.93892   0.95345   1.05689   1.08965   1.19208
  Beta virt. eigenvalues --    1.19212   1.43221   1.43224   1.86189   2.24099
  Beta virt. eigenvalues --    2.48490   3.75575   3.75610   3.76725   3.76741
  Beta virt. eigenvalues --    3.78787   5.96021   5.97185   5.99583  66.49726
          Condensed to atoms (all electrons):
               1          2          3
     1  H    0.708444   0.288703   0.002633
     2  H    0.288703   0.715429  -0.000092
     3  F    0.002633  -0.000092   8.993639
          Atomic-Atomic Spin Densities.
               1          2          3
     1  H    0.001533   0.000209  -0.000286
     2  H    0.000209  -0.002148   0.000009
     3  F   -0.000286   0.000009   1.000751
 Mulliken charges and spin densities:
               1          2
     1  H    0.000221   0.001456
     2  H   -0.004040  -0.001930
     3  F    0.003820   1.000474
 Sum of Mulliken charges =   0.00000   1.00000
 Mulliken charges and spin densities with hydrogens summed into heavy atoms:
               1          2
     3  F    0.000000   1.000000
 APT charges:
               1
     1  H    0.008398
     2  H   -0.002785
     3  F   -0.005613
 Sum of APT charges =   0.00000
 APT charges with hydrogens summed into heavy atoms:
               1
     3  F    0.000000
 Electronic spatial extent (au):  <R**2>=            383.6654
 Charge=              0.0000 electrons
 Dipole moment (field-independent basis, Debye):
    X=              0.0648    Y=              0.0000    Z=              0.0000  Tot=              0.0648
 Quadrupole moment (field-independent basis, Debye-Ang):
   XX=             -6.2185   YY=             -7.7119   ZZ=             -6.8783
   XY=             -0.0000   XZ=             -0.0000   YZ=              0.1139
 Traceless Quadrupole moment (field-independent basis, Debye-Ang):
   XX=              0.7177   YY=             -0.7756   ZZ=              0.0579
   XY=             -0.0000   XZ=             -0.0000   YZ=              0.1139
 Octapole moment (field-independent basis, Debye-Ang**2):
  XXX=            -44.3738  YYY=              0.0000  ZZZ=              0.0000  XYY=            -14.0358
  XXY=             -0.0000  XXZ=             -0.0001  XZZ=            -11.2433  YZZ=              0.0000
  YYZ=              0.0000  XYZ=              0.3816
 Hexadecapole moment (field-independent basis, Debye-Ang**3):
 XXXX=           -339.2670 YYYY=             -6.5333 ZZZZ=             -5.7885 XXXY=             -0.0001
 XXXZ=             -0.0006 YYYX=             -0.0000 YYYZ=              0.0509 ZZZX=             -0.0000
 ZZZY=              0.0509 XXYY=            -58.7977 XXZZ=            -49.3187 YYZZ=             -2.0536
 XXYZ=              1.2952 YYXZ=             -0.0000 ZZXY=             -0.0000
 N-N= 2.778827189999D+00 E-N=-2.463961108793D+02  KE= 1.004270984994D+02
  Exact polarizability:      21.798       0.000       2.057      -0.000       0.061       2.506
 Approx polarizability:      39.943      -0.000       2.061      -0.000       0.077       2.622
                          Isotropic Fermi Contact Couplings
        Atom                 a.u.       MegaHertz       Gauss      10(-4) cm-1
     1  H(1)               0.00054       2.39643       0.85511       0.79936
     2  H(1)              -0.00056      -2.50847      -0.89508      -0.83673
     3  F(19)              0.03112     130.91768      46.71468      43.66944
 --------------------------------------------------------
       Center         ----  Spin Dipole Couplings  ----
                      3XX-RR        3YY-RR        3ZZ-RR
 --------------------------------------------------------
     1   Atom        0.007373     -0.003773     -0.003600
     2   Atom        0.002755     -0.001392     -0.001363
     3   Atom       -3.145519     -2.984073      6.129592
 --------------------------------------------------------
                        XY            XZ            YZ
 --------------------------------------------------------
     1   Atom        0.000000      0.000000      0.000024
     2   Atom        0.000000      0.000000      0.000004
     3   Atom       -0.000026     -0.000192      1.245285
 --------------------------------------------------------


 ---------------------------------------------------------------------------------
              Anisotropic Spin Dipole Couplings in Principal Axis System
 ---------------------------------------------------------------------------------

       Atom             a.u.   MegaHertz   Gauss  10(-4) cm-1        Axes

              Baa    -0.0038    -2.015    -0.719    -0.672 -0.0000  0.9911 -0.1330
     1 H(1)   Bbb    -0.0036    -1.919    -0.685    -0.640 -0.0000  0.1330  0.9911
              Bcc     0.0074     3.934     1.404     1.312  1.0000  0.0000  0.0000
 
              Baa    -0.0014    -0.743    -0.265    -0.248  0.0000  0.9911 -0.1330
     2 H(1)   Bbb    -0.0014    -0.727    -0.259    -0.242 -0.0000  0.1330  0.9911
              Bcc     0.0028     1.470     0.524     0.490  1.0000  0.0000  0.0000
 
              Baa    -3.1512 -1582.596  -564.709  -527.897  0.0000  0.9911 -0.1330
     3 F(19)  Bbb    -3.1455 -1579.760  -563.698  -526.951  1.0000 -0.0000  0.0000
              Bcc     6.2967  3162.356  1128.407  1054.848 -0.0000  0.1330  0.9911
 

 ---------------------------------------------------------------------------------

 Calling FoFJK, ICntrl=    100127 FMM=F ISym2X=0 I1Cent= 0 IOpClX= 1 NMat=1 NMatS=1 NMatT=0.
 Full mass-weighted force constant matrix:
 Low frequencies ----1222.1197  -33.7501   -0.0021   -0.0020    0.0008   20.5203
 Low frequencies ---   30.7412 1288.3429 1289.3081
 ******    2 imaginary frequencies (negative Signs) ****** 
 Diagonal vibrational polarizability:
        6.2920045       0.0000479       0.0000548
 Harmonic frequencies (cm**-1), IR intensities (KM/Mole), Raman scattering
 activities (A**4/AMU), depolarization ratios for plane and unpolarized
 incident light, reduced masses (AMU), force constants (mDyne/A),
 and normal coordinates:
                      1                      2                      3
                      A                      A                      A
 Frequencies --  -1222.1197               -33.7501              1266.4210
 Red. masses --      1.0078                 1.1085                 1.0109
 Frc consts  --      0.8869                 0.0007                 0.9553
 IR Inten    --      0.3618                 0.2660                 0.0033
  Atom  AN      X      Y      Z        X      Y      Z        X      Y      Z
     1   1    -0.71  -0.00  -0.00     0.71   0.00  -0.00    -0.00   0.10   0.81
     2   1     0.71   0.00   0.00     0.70  -0.00   0.00     0.00  -0.07  -0.57
     3   9    -0.00   0.00   0.00    -0.07  -0.00   0.00    -0.00  -0.00  -0.01
                      4
                      A
 Frequencies --   1267.5250
 Red. masses --      1.0109
 Frc consts  --      0.9569
 IR Inten    --      0.0028
  Atom  AN      X      Y      Z
     1   1    -0.00   0.81  -0.10
     2   1    -0.00  -0.57   0.07
     3   9     0.00  -0.01   0.00

 -------------------
 - Thermochemistry -
 -------------------
 Temperature   298.150 Kelvin.  Pressure   1.00000 Atm.
 Atom     1 has atomic number  1 and mass   1.00783
 Atom     2 has atomic number  1 and mass   1.00783
 Atom     3 has atomic number  9 and mass  18.99840
 Molecular mass:    21.01405 amu.
 Principal axes and moments of inertia in atomic units:
                           1         2         3
     Eigenvalues --     0.00000 111.84605 111.84605
           X            1.00000  -0.00000   0.00000
           Y            0.00000   1.00000   0.00000
           Z            0.00000   0.00000   1.00000
 This molecule is a prolate symmetric top.
 Rotational symmetry number  1.
 Rotational temperature (Kelvin)      0.77440
 Rotational constant (GHZ):          16.135941
    2 imaginary frequencies ignored.
 Zero-point vibrational energy      15156.4 (Joules/Mol)
                                    3.62246 (Kcal/Mol)
 Vibrational temperatures:   1822.10  1823.69
          (Kelvin)
 
 Zero-point correction=                           0.005773 (Hartree/Particle)
 Thermal correction to Energy=                    0.008159
 Thermal correction to Enthalpy=                  0.009103
 Thermal correction to Gibbs Free Energy=        -0.014808
 Sum of electronic and zero-point Energies=           -100.822670
 Sum of electronic and thermal Energies=              -100.820284
 Sum of electronic and thermal Enthalpies=            -100.819340
 Sum of electronic and thermal Free Energies=         -100.843251
 
                     E (Thermal)             CV                S
                      KCal/Mol        Cal/Mol-Kelvin    Cal/Mol-Kelvin
 Total                    5.120              5.298             50.326
 Electronic               0.000              0.000              1.377
 Translational            0.889              2.981             35.068
 Rotational               0.592              1.987             13.818
 Vibrational              3.639              0.330              0.063
                       Q            Log10(Q)             Ln(Q)
 Total Bot       0.647678D+07          6.811359         15.683735
 Total V=0       0.292846D+10          9.466640         21.797743
 Vib (Bot)       0.222148D-02         -2.653357         -6.109580
 Vib (V=0)       0.100444D+01          0.001923          0.004428
 Electronic      0.200000D+01          0.301030          0.693147
 Translational   0.378633D+07          6.578219         15.146908
 Rotational      0.385006D+03          2.585468          5.953259
 -------------------------------------------------------------------
 Center     Atomic                   Forces (Hartrees/Bohr)
 Number     Number              X              Y              Z
 -------------------------------------------------------------------
      1        1          -0.086233795   -0.000000001   -0.000000005
      2        1           0.086652337    0.000000000    0.000000002
      3        9          -0.000418542    0.000000000    0.000000003
 -------------------------------------------------------------------
 Cartesian Forces:  Max     0.086652337 RMS     0.040750010

 GradGradGradGradGradGradGradGradGradGradGradGradGradGradGradGradGradGrad
 Berny optimization.
 Search for a local minimum.
 Step number   1 out of a maximum of    2
 All quantities printed in internal units (Hartrees-Bohrs-Radians)
 Second derivative matrix not updated -- analytic derivatives used.
 The second derivative matrix:
                          X1        Y1        Z1        X2        Y2
           X1          -0.02848
           Y1          -0.00000   0.03177
           Z1          -0.00000  -0.00001   0.03167
           X2           0.02846   0.00000   0.00000  -0.02853
           Y2           0.00000  -0.03168   0.00001  -0.00000   0.03167
           Z2           0.00000   0.00001  -0.03165  -0.00000  -0.00000
           X3           0.00001   0.00000  -0.00000   0.00006  -0.00000
           Y3           0.00000  -0.00008   0.00001  -0.00000   0.00002
           Z3           0.00000   0.00001  -0.00003  -0.00000  -0.00000
                          Z2        X3        Y3        Z3
           Z2           0.03165
           X3           0.00000  -0.00008
           Y3          -0.00000  -0.00000   0.00006
           Z3          -0.00000   0.00000  -0.00000   0.00003
 ITU=  0
     Eigenvalues ---   -0.05696  -0.00009   0.06096   0.06107
 Eigenvalue     1 is  -5.70D-02 should be greater than     0.000000 Eigenvector:
                          X2        X1        X3        Z1        Z2
   1                    0.70752  -0.70669  -0.00028  -0.00000   0.00000
                          Y1        Z3        Y2        Y3
   1                   -0.00000   0.00000   0.00000   0.00000
 Eigenvalue     2 is  -8.93D-05 should be greater than     0.000000 Eigenvector:
                          X1        X2        X3        Z1        Z2
   1                    0.64006   0.63914  -0.42640  -0.00000   0.00000
                          Z3        Y1        Y2        Y3
   1                    0.00000   0.00000  -0.00000  -0.00000
 Quadratic step=4.633D+00 exceeds max=3.000D-01 adjusted using Lamda=-3.504D-01.
 Angle between NR and scaled steps=  62.21 degrees.
 Angle between quadratic step and forces=   0.12 degrees.
 Linear search not attempted -- first point.
 B after Tr=    -0.000353   -0.000000    0.000000
         Rot=    0.994839   -0.101469    0.000000   -0.000000 Ang= -11.65 deg.
 Variable       Old X    -DE/DX   Delta X   Delta X   Delta X     New X
                                 (Linear)    (Quad)   (Total)
    X1        0.00000  -0.08623   0.00000  -0.21141  -0.21176  -0.21176
    Y1        0.00000  -0.00000   0.00000  -0.00000   0.00000   0.00000
    Z1        0.00000  -0.00000   0.00000  -0.00000  -0.00000  -0.00000
    X2       -2.74010   0.08665   0.00000   0.21299   0.21264  -2.52746
    Y2        0.00000   0.00000   0.00000   0.00000  -0.00000  -0.00000
    Z2        0.00000   0.00000   0.00000   0.00000   0.00000   0.00000
    X3        6.33058  -0.00042   0.00000  -0.00053  -0.00088   6.32970
    Y3        0.00000   0.00000   0.00000   0.00000  -0.00000  -0.00000
    Z3        0.00000   0.00000   0.00000   0.00000   0.00000   0.00000
         Item               Value     Threshold  Converged?
 Maximum Force            0.086652     0.000450     NO 
 RMS     Force            0.040750     0.000300     NO 
 Maximum Displacement     0.212640     0.001800     NO 
 RMS     Displacement     0.100032     0.001200     NO 
 Predicted change in Energy=-3.925191D-02
 GradGradGradGradGradGradGradGradGradGradGradGradGradGradGradGradGradGrad


 ----------------------------------------------------------------------

 Electric dipole moment (input orientation):
 (Debye = 10**-18 statcoulomb cm , SI units = C m)
                  (au)            (Debye)         (10**-30 SI)
   Tot        0.254766D-01      0.647550D-01      0.216000D+00
   x          0.254766D-01      0.647550D-01      0.216000D+00
   y          0.000000D+00      0.000000D+00      0.000000D+00
   z          0.000000D+00      0.000000D+00      0.000000D+00

 Dipole polarizability, Alpha (input orientation).
 (esu units = cm**3 , SI units = C**2 m**2 J**-1)
 Alpha(0;0):
               (au)            (10**-24 esu)      (10**-40 SI)
   iso        0.878707D+01      0.130211D+01      0.144879D+01
   aniso      0.195202D+02      0.289260D+01      0.321845D+01
   xx         0.217978D+02      0.323010D+01      0.359397D+01
   yx         0.000000D+00      0.000000D+00      0.000000D+00
   yy         0.205749D+01      0.304888D+00      0.339234D+00
   zx         0.000000D+00      0.000000D+00      0.000000D+00
   zy         0.612482D-01      0.907605D-02      0.100985D-01
   zz         0.250596D+01      0.371345D+00      0.413177D+00

 ----------------------------------------------------------------------

 Dipole orientation:
     1          0.00000000          0.00000000          0.00000000
     1         -0.00000120          0.00000005         -2.74010288
     9          0.00000276         -0.00000011          6.33058252

 Electric dipole moment (dipole orientation):
 (Debye = 10**-18 statcoulomb cm , SI units = C m)
                  (au)            (Debye)         (10**-30 SI)
   Tot        0.254766D-01      0.647550D-01      0.216000D+00
   x          0.000000D+00      0.000000D+00      0.000000D+00
   y          0.000000D+00      0.000000D+00      0.000000D+00
   z          0.254766D-01      0.647550D-01      0.216000D+00

 Dipole polarizability, Alpha (dipole orientation).
 (esu units = cm**3 , SI units = C**2 m**2 J**-1)
 Alpha(0;0):
               (au)            (10**-24 esu)      (10**-40 SI)
   iso        0.878707D+01      0.130211D+01      0.144879D+01
   aniso      0.195202D+02      0.289260D+01      0.321845D+01
   xx         0.250596D+01      0.371345D+00      0.413177D+00
   yx        -0.612482D-01     -0.907605D-02     -0.100985D-01
   yy         0.205749D+01      0.304888D+00      0.339234D+00
   zx         0.153543D-04      0.227527D-05      0.253158D-05
   zy         0.000000D+00      0.000000D+00      0.000000D+00
   zz         0.217978D+02      0.323010D+01      0.359397D+01

 ----------------------------------------------------------------------
 Unable to Open any file for archive entry.
 1\1\GINC-DESKTOP-B3RIHJD\Freq\UB3LYP\6-311G(d,p)\F1H2(2)\GARYX\22-Aug-
 2025\0\\# sp b3lyp/6-311g** Force nosymm scf=(qc)\\Title Card Required
 \\0,2\H,0.,0.,0.\H,-1.45,0.,0.\F,3.35,0.,0.\\Version=ES64L-G16RevC.01\
 HF=-100.8284429\S2=0.750969\S2-1=0.\S2A=0.750001\RMSD=7.527e-09\RMSF=4
 .075e-02\ZeroPoint=0.0057728\Thermal=0.0081588\ETot=-100.8202841\HTot=
 -100.8193399\GTot=-100.8432513\Dipole=0.0254766,0.,0.\DipoleDeriv=0.02
 48249,0.0000005,0.,0.,0.0001246,0.0000169,0.0000003,0.0000153,0.000244
 2,-0.0025363,0.,0.,0.,-0.0028926,-0.0000047,-0.0000003,-0.0000044,-0.0
 029272,-0.0222887,-0.0000004,0.,0.,0.002768,-0.0000121,0.,-0.0000109,0
 .002683\Polar=21.7977771,0.0000037,2.0574883,-0.0000069,0.0612482,2.50
 59595\Quadrupole=0.5335993,-0.5766766,0.0430773,-0.0000017,-0.0000129,
 0.0846827\PG=C*V [C*(H1H1F1)]\NImag=2\\-0.02847729,0.,0.03176567,-0.00
 000004,-0.00001118,0.03167408,0.02846259,0.,0.00000005,-0.02852646,0.,
 -0.03168304,0.00000506,0.,0.03166533,0.00000001,0.00000516,-0.03164603
 ,-0.00000002,-0.00000246,0.03164735,0.00001471,0.,-0.00000001,0.000063
 87,0.,0.,-0.00007857,0.,-0.00008263,0.00000612,0.,0.00001771,-0.000002
 70,0.,0.00006493,0.00000003,0.00000602,-0.00002805,-0.00000003,-0.0000
 0260,-0.00000132,0.,-0.00000341,0.00002937\\0.08623380,0.,0.,-0.086652
 34,0.,0.,0.00041854,0.,0.\\\@
 The archive entry for this job was punched.


 I LOVE MANKIND - IT'S PEOPLE I CAN'T STAND.
     -- LINUS OF PEANUTS
 Job cpu time:       0 days  0 hours  9 minutes 37.9 seconds.
 Elapsed time:       0 days  0 hours  1 minutes 17.1 seconds.
 File lengths (MBytes):  RWF=      6 Int=      0 D2E=      0 Chk=      1 Scr=      1
 Normal termination of Gaussian 16 at Fri Aug 22 20:58:51 2025.
