 Entering Gaussian System, Link 0=g16
 Initial command:
 /home/garyx/gaussian/g16/l1.exe "/tmp/gaussian_scratch/Gau-217771.inp" -scrdir="/tmp/gaussian_scratch/"
 Entering Link 1 = /home/garyx/gaussian/g16/l1.exe PID=    217773.
  
 Copyright (c) 1988-2019, Gaussian, Inc.  All Rights Reserved.
  
 This is part of the Gaussian(R) 16 program.  It is based on
 the Gaussian(R) 09 system (copyright 2009, Gaussian, Inc.),
 the Gaussian(R) 03 system (copyright 2003, Gaussian, Inc.),
 the Gaussian(R) 98 system (copyright 1998, Gaussian, Inc.),
 the Gaussian(R) 94 system (copyright 1995, Gaussian, Inc.),
 the Gaussian 92(TM) system (copyright 1992, Gaussian, Inc.),
 the Gaussian 90(TM) system (copyright 1990, Gaussian, Inc.),
 the Gaussian 88(TM) system (copyright 1988, Gaussian, Inc.),
 the Gaussian 86(TM) system (copyright 1986, Carnegie Mellon
 University), and the Gaussian 82(TM) system (copyright 1983,
 Carnegie Mellon University). Gaussian is a federally registered
 trademark of Gaussian, Inc.
  
 This software contains proprietary and confidential information,
 including trade secrets, belonging to Gaussian, Inc.
  
 This software is provided under written license and may be
 used, copied, transmitted, or stored only in accord with that
 written license.
  
 The following legend is applicable only to US Government
 contracts under FAR:
  
                    RESTRICTED RIGHTS LEGEND
  
 Use, reproduction and disclosure by the US Government is
 subject to restrictions as set forth in subparagraphs (a)
 and (c) of the Commercial Computer Software - Restricted
 Rights clause in FAR 52.227-19.
  
 Gaussian, Inc.
 340 Quinnipiac St., Bldg. 40, Wallingford CT 06492
  
  
 ---------------------------------------------------------------
 Warning -- This program may not be used in any manner that
 competes with the business of Gaussian, Inc. or will provide
 assistance to any competitor of Gaussian, Inc.  The licensee
 of this program is prohibited from giving any competitor of
 Gaussian, Inc. access to this program.  By using this program,
 the user acknowledges that Gaussian, Inc. is engaged in the
 business of creating and licensing software in the field of
 computational chemistry and represents and warrants to the
 licensee that it is not a competitor of Gaussian, Inc. and that
 it will not use this program in any manner prohibited above.
 ---------------------------------------------------------------
  

 Cite this work as:
 Gaussian 16, Revision C.01,
 M. J. Frisch, G. W. Trucks, H. B. Schlegel, G. E. Scuseria, 
 M. A. Robb, J. R. Cheeseman, G. Scalmani, V. Barone, 
 G. A. Petersson, H. Nakatsuji, X. Li, M. Caricato, A. V. Marenich, 
 J. Bloino, B. G. Janesko, R. Gomperts, B. Mennucci, H. P. Hratchian, 
 J. V. Ortiz, A. F. Izmaylov, J. L. Sonnenberg, D. Williams-Young, 
 F. Ding, F. Lipparini, F. Egidi, J. Goings, B. Peng, A. Petrone, 
 T. Henderson, D. Ranasinghe, V. G. Zakrzewski, J. Gao, N. Rega, 
 G. Zheng, W. Liang, M. Hada, M. Ehara, K. Toyota, R. Fukuda, 
 J. Hasegawa, M. Ishida, T. Nakajima, Y. Honda, O. Kitao, H. Nakai, 
 T. Vreven, K. Throssell, J. A. Montgomery, Jr., J. E. Peralta, 
 F. Ogliaro, M. J. Bearpark, J. J. Heyd, E. N. Brothers, K. N. Kudin, 
 V. N. Staroverov, T. A. Keith, R. Kobayashi, J. Normand, 
 K. Raghavachari, A. P. Rendell, J. C. Burant, S. S. Iyengar, 
 J. Tomasi, M. Cossi, J. M. Millam, M. Klene, C. Adamo, R. Cammi, 
 J. W. Ochterski, R. L. Martin, K. Morokuma, O. Farkas, 
 J. B. Foresman, and D. J. Fox, Gaussian, Inc., Wallingford CT, 2019.
 
 ******************************************
 Gaussian 16:  ES64L-G16RevC.01  3-Jul-2019
                22-Aug-2025 
 ******************************************
 %mem=10GB
 %nprocs=8
 Will use up to    8 processors via shared memory.
 -----------------------------------------
 # sp b3lyp/6-311g** Force nosymm scf=(qc)
 -----------------------------------------
 1/10=4,30=1,38=1/1,3;
 2/12=2,15=1,17=6,18=5,40=1/2;
 3/5=4,6=6,7=101,11=2,25=1,30=1,71=2,74=-5,140=1/1,2,3;
 4//1;
 5/5=2,8=3,38=5,98=1/8;
 8/6=4,10=90,11=11/1;
 11/6=1,8=1,9=11,15=111,16=1,31=1/1,2,10;
 10/6=1,31=1/2;
 6/7=2,8=2,9=2,10=2,28=1/1;
 7/8=1,10=1,25=1,30=1/1,2,3,16;
 1/10=4,30=1/3;
 99//99;
 -------------------
 Title Card Required
 -------------------
 Symbolic Z-matrix:
 Charge =  0 Multiplicity = 2
 H                     0.        0.        0. 
 H                    -2.2       0.        0. 
 F                     1.1       0.        0. 
 

 GradGradGradGradGradGradGradGradGradGradGradGradGradGradGradGradGradGrad
 Berny optimization.
 Initialization pass.
 Trust Radius=3.00D-01 FncErr=1.00D-07 GrdErr=1.00D-07 EigMax=2.50D+02 EigMin=1.00D-04
 Number of steps in this run=      2 maximum allowed number of steps=      2.
 GradGradGradGradGradGradGradGradGradGradGradGradGradGradGradGradGradGrad

                          Input orientation:                          
 ---------------------------------------------------------------------
 Center     Atomic      Atomic             Coordinates (Angstroms)
 Number     Number       Type             X           Y           Z
 ---------------------------------------------------------------------
      1          1           0        0.000000    0.000000    0.000000
      2          1           0       -2.200000    0.000000    0.000000
      3          9           0        1.100000    0.000000    0.000000
 ---------------------------------------------------------------------
                    Distance matrix (angstroms):
                    1          2          3
     1  H    0.000000
     2  H    2.200000   0.000000
     3  F    1.100000   3.300000   0.000000
 Symmetry turned off by external request.
 Stoichiometry    FH2(2)
 Framework group  C*V[C*(HHF)]
 Deg. of freedom     2
 Full point group                 C*V     NOp   4
 Rotational constants (GHZ):           0.0000000          44.8869879          44.8869879
 Standard basis: 6-311G(d,p) (5D, 7F)
    30 basis functions,    48 primitive gaussians,    31 cartesian basis functions
     6 alpha electrons        5 beta electrons
       nuclear repulsion energy         6.0133773968 Hartrees.
 NAtoms=    3 NActive=    3 NUniq=    3 SFac= 1.00D+00 NAtFMM=   60 NAOKFM=F Big=F
 Integral buffers will be    131072 words long.
 Raffenetti 2 integral format.
 Two-electron integral symmetry is turned off.
 One-electron integrals computed using PRISM.
 NBasis=    30 RedAO= T EigKep=  5.24D-02  NBF=    30
 NBsUse=    30 1.00D-06 EigRej= -1.00D+00 NBFU=    30
 ExpMin= 1.03D-01 ExpMax= 1.14D+04 ExpMxC= 1.72D+03 IAcc=3 IRadAn=         5 AccDes= 0.00D+00
 Harris functional with IExCor=  402 and IRadAn=       5 diagonalized for initial guess.
 HarFok:  IExCor=  402 AccDes= 0.00D+00 IRadAn=         5 IDoV= 1 UseB2=F ITyADJ=14
 ICtDFT=  3500011 ScaDFX=  1.000000  1.000000  1.000000  1.000000
 FoFCou: FMM=F IPFlag=           0 FMFlag=      100000 FMFlg1=           0
         NFxFlg=           0 DoJE=T BraDBF=F KetDBF=T FulRan=T
         wScrn=  0.000000 ICntrl=       500 IOpCl=  0 I1Cent=   200000004 NGrid=           0
         NMat0=    1 NMatS0=      1 NMatT0=    0 NMatD0=    1 NMtDS0=    0 NMtDT0=    0
 Symmetry not used in FoFCou.
 Initial guess <Sx>= 0.0000 <Sy>= 0.0000 <Sz>= 0.5000 <S**2>= 0.7500 S= 0.5000
 Keep R1 and R2 ints in memory in canonical form, NReq=7127049.
 Gradient too large for Newton-Raphson -- use scaled steepest descent instead.
     Accept linear search using points  2 and  3.
 Gradient too large for Newton-Raphson -- use scaled steepest descent instead.
     Minimum is close to point  4 DX= -1.94D-04 DF= -9.86D-11 DXR=  1.94D-04 DFR=  3.77D-08 which will be used.
 Gradient too large for Newton-Raphson -- use scaled steepest descent instead.
 LinEq1:  Iter=  0 NonCon=     1 RMS=1.12D-04 Max=1.10D-03 NDo=     1
 AX will form     1 AO Fock derivatives at one time.
 LinEq1:  Iter=  1 NonCon=     1 RMS=3.20D-05 Max=3.72D-04 NDo=     1
 LinEq1:  Iter=  2 NonCon=     1 RMS=2.35D-05 Max=2.14D-04 NDo=     1
 LinEq1:  Iter=  3 NonCon=     1 RMS=1.34D-05 Max=8.62D-05 NDo=     1
 LinEq1:  Iter=  4 NonCon=     1 RMS=1.69D-06 Max=1.52D-05 NDo=     1
 LinEq1:  Iter=  5 NonCon=     1 RMS=7.30D-08 Max=5.31D-07 NDo=     1
 LinEq1:  Iter=  6 NonCon=     1 RMS=9.46D-09 Max=5.74D-08 NDo=     1
 LinEq1:  Iter=  7 NonCon=     1 RMS=1.70D-09 Max=1.03D-08 NDo=     1
 LinEq1:  Iter=  8 NonCon=     0 RMS=1.33D-10 Max=9.94D-10 NDo=     1
 Linear equations converged to 1.640D-09 1.640D-08 after     8 iterations.
     Accept linear search using points  1 and  2.
     Minimum is close to point  2 DX= -1.83D-04 DF= -8.53D-14 DXR=  1.83D-04 DFR=  3.35D-08 which will be used.
 LinEq1:  Iter=  0 NonCon=     1 RMS=9.01D-08 Max=9.20D-07 NDo=     1
 LinEq1:  Iter=  1 NonCon=     1 RMS=6.35D-08 Max=6.64D-07 NDo=     1
 LinEq1:  Iter=  2 NonCon=     1 RMS=9.45D-09 Max=9.68D-08 NDo=     1
 LinEq1:  Iter=  3 NonCon=     1 RMS=2.32D-09 Max=1.88D-08 NDo=     1
 LinEq1:  Iter=  4 NonCon=     1 RMS=7.49D-10 Max=5.70D-09 NDo=     1
 LinEq1:  Iter=  5 NonCon=     1 RMS=5.74D-11 Max=3.94D-10 NDo=     1
 LinEq1:  Iter=  6 NonCon=     0 RMS=7.79D-12 Max=4.33D-11 NDo=     1
 Linear equations converged to 1.042D-11 1.042D-10 after     6 iterations.
 SCF Done:  E(UB3LYP) =  -100.949477661     a.u. after    6 cycles
            Convg  =    0.2069D-09                    27 Fock formations.
              S**2 =  0.7502                  -V/T =  2.0034
 <Sx>= 0.0000 <Sy>= 0.0000 <Sz>= 0.5000 <S**2>= 0.7502 S= 0.5001
 <L.S>=  0.00000000000    
 Annihilation of the first spin contaminant:
 S**2 before annihilation     0.7502,   after     0.7500
 DoSCS=F DFT=T ScalE2(SS,OS)=  1.000000  1.000000
 Range of M.O.s used for correlation:     1    30
 NBasis=    30 NAE=     6 NBE=     5 NFC=     0 NFV=     0
 NROrb=     30 NOA=     6 NOB=     5 NVA=    24 NVB=    25
 Symmetrizing basis deriv contribution to polar:
 IMax=3 JMax=2 DiffMx= 0.00D+00
 G2DrvN: will do     4 centers at a time, making    1 passes.
 Calling FoFCou, ICntrl=  3107 FMM=F I1Cent=   0 AccDes= 0.00D+00.
 End of G2Drv F.D. properties file   721 does not exist.
 End of G2Drv F.D. properties file   722 does not exist.
 End of G2Drv F.D. properties file   788 does not exist.
          IDoAtm=111
          Differentiating once with respect to electric field.
                with respect to dipole field.
          Differentiating once with respect to nuclear coordinates.
 Keep R1 and R2 ints in memory in canonical form, NReq=7101519.
          There are    12 degrees of freedom in the 1st order CPHF.  IDoFFX=6 NUNeed=     3.
      9 vectors produced by pass  0 Test12= 2.24D-15 8.33D-09 XBig12= 1.49D+01 2.43D+00.
 AX will form     9 AO Fock derivatives at one time.
      9 vectors produced by pass  1 Test12= 2.24D-15 8.33D-09 XBig12= 2.50D+00 4.70D-01.
      9 vectors produced by pass  2 Test12= 2.24D-15 8.33D-09 XBig12= 3.51D-02 1.20D-01.
      9 vectors produced by pass  3 Test12= 2.24D-15 8.33D-09 XBig12= 1.23D-04 3.69D-03.
      9 vectors produced by pass  4 Test12= 2.24D-15 8.33D-09 XBig12= 1.12D-06 3.04D-04.
      4 vectors produced by pass  5 Test12= 2.24D-15 8.33D-09 XBig12= 5.45D-09 2.83D-05.
      2 vectors produced by pass  6 Test12= 2.24D-15 8.33D-09 XBig12= 1.51D-11 1.19D-06.
      1 vectors produced by pass  7 Test12= 2.24D-15 8.33D-09 XBig12= 1.34D-14 4.98D-08.
 InvSVY:  IOpt=1 It=  1 EMax= 3.33D-16
 Solved reduced A of dimension    52 with     9 vectors.
 Isotropic polarizability for W=    0.000000        5.58 Bohr**3.
 End of Minotr F.D. properties file   721 does not exist.
 End of Minotr F.D. properties file   722 does not exist.
 End of Minotr F.D. properties file   788 does not exist.

 **********************************************************************

            Population analysis using the SCF Density.

 **********************************************************************

 Alpha  occ. eigenvalues --  -24.63957  -1.13621  -0.49577  -0.37822  -0.37822
 Alpha  occ. eigenvalues --   -0.35857
 Alpha virt. eigenvalues --   -0.00485   0.24557   0.30792   0.93833   0.93833
 Alpha virt. eigenvalues --    0.99601   1.16691   1.21630   1.21630   1.35553
 Alpha virt. eigenvalues --    1.35553   1.42389   1.79323   2.12991   2.33230
 Alpha virt. eigenvalues --    3.82941   3.82941   3.92131   3.92131   4.53365
 Alpha virt. eigenvalues --    6.03458   6.03458   6.25211  66.65061
  Beta  occ. eigenvalues --  -24.63890  -1.13453  -0.49241  -0.37762  -0.37762
  Beta virt. eigenvalues --   -0.12264   0.02013   0.30714   0.35558   0.93836
  Beta virt. eigenvalues --    0.93836   0.99857   1.25686   1.35308   1.35308
  Beta virt. eigenvalues --    1.41971   1.41971   1.52742   1.79505   2.30914
  Beta virt. eigenvalues --    2.40209   3.82973   3.82973   3.92316   3.92316
  Beta virt. eigenvalues --    4.53583   6.03512   6.03512   6.25472  66.65126
          Condensed to atoms (all electrons):
               1          2          3
     1  H    0.424949   0.014646   0.231378
     2  H    0.014646   0.971836  -0.001559
     3  F    0.231378  -0.001559   9.114284
          Atomic-Atomic Spin Densities.
               1          2          3
     1  H   -0.008514   0.010488  -0.000584
     2  H    0.010488   0.970619  -0.002239
     3  F   -0.000584  -0.002239   0.022566
 Mulliken charges and spin densities:
               1          2
     1  H    0.329027   0.001390
     2  H    0.015076   0.978867
     3  F   -0.344103   0.019743
 Sum of Mulliken charges =  -0.00000   1.00000
 Mulliken charges and spin densities with hydrogens summed into heavy atoms:
               1          2
     3  F   -0.000000   1.000000
 APT charges:
               1
     1  H    0.391143
     2  H   -0.006215
     3  F   -0.384928
 Sum of APT charges =  -0.00000
 APT charges with hydrogens summed into heavy atoms:
               1
     3  F   -0.000000
 Electronic spatial extent (au):  <R**2>=             72.6574
 Charge=             -0.0000 electrons
 Dipole moment (field-independent basis, Debye):
    X=             -2.3389    Y=              0.0000    Z=              0.0000  Tot=              2.3389
 Quadrupole moment (field-independent basis, Debye-Ang):
   XX=             -8.1179   YY=             -7.0272   ZZ=             -7.0272
   XY=             -0.0000   XZ=              0.0000   YZ=              0.0000
 Traceless Quadrupole moment (field-independent basis, Debye-Ang):
   XX=             -0.7271   YY=              0.3635   ZZ=              0.3635
   XY=             -0.0000   XZ=              0.0000   YZ=              0.0000
 Octapole moment (field-independent basis, Debye-Ang**2):
  XXX=            -10.5440  YYY=              0.0000  ZZZ=              0.0000  XYY=             -2.7321
  XXY=             -0.0000  XXZ=              0.0000  XZZ=             -2.7321  YZZ=              0.0000
  YYZ=              0.0000  XYZ=              0.0000
 Hexadecapole moment (field-independent basis, Debye-Ang**3):
 XXXX=            -75.7475 YYYY=             -5.0592 ZZZZ=             -5.0592 XXXY=             -0.0000
 XXXZ=              0.0000 YYYX=             -0.0000 YYYZ=              0.0000 ZZZX=              0.0000
 ZZZY=              0.0000 XXYY=            -14.2412 XXZZ=            -14.2412 YYZZ=             -1.6864
 XXYZ=              0.0000 YYXZ=              0.0000 ZZXY=             -0.0000
 N-N= 6.013377396818D+00 E-N=-2.536846211218D+02  KE= 1.006051015709D+02
  Exact polarizability:      11.927       0.000       2.407      -0.000      -0.000       2.407
 Approx polarizability:      14.009       0.000       2.378      -0.000      -0.000       2.378
                          Isotropic Fermi Contact Couplings
        Atom                 a.u.       MegaHertz       Gauss      10(-4) cm-1
     1  H(1)              -0.00311     -13.88803      -4.95560      -4.63255
     2  H(1)               0.29356    1312.18010     468.21849     437.69617
     3  F(19)             -0.00502     -21.14006      -7.54330      -7.05157
 --------------------------------------------------------
       Center         ----  Spin Dipole Couplings  ----
                      3XX-RR        3YY-RR        3ZZ-RR
 --------------------------------------------------------
     1   Atom        0.035551     -0.017775     -0.017775
     2   Atom        0.001100     -0.000550     -0.000550
     3   Atom        0.147030     -0.073515     -0.073515
 --------------------------------------------------------
                        XY            XZ            YZ
 --------------------------------------------------------
     1   Atom        0.000000      0.000000      0.000000
     2   Atom        0.000000      0.000000      0.000000
     3   Atom        0.000000      0.000000      0.000000
 --------------------------------------------------------


 ---------------------------------------------------------------------------------
              Anisotropic Spin Dipole Couplings in Principal Axis System
 ---------------------------------------------------------------------------------

       Atom             a.u.   MegaHertz   Gauss  10(-4) cm-1        Axes

              Baa    -0.0178    -9.484    -3.384    -3.164  0.0000  0.0000  1.0000
     1 H(1)   Bbb    -0.0178    -9.484    -3.384    -3.164 -0.0000  1.0000  0.0000
              Bcc     0.0356    18.968     6.768     6.327  1.0000  0.0000  0.0000
 
              Baa    -0.0005    -0.293    -0.105    -0.098 -0.0000  1.0000  0.0000
     2 H(1)   Bbb    -0.0005    -0.293    -0.105    -0.098  0.0000  0.0000  1.0000
              Bcc     0.0011     0.587     0.209     0.196  1.0000  0.0000  0.0000
 
              Baa    -0.0735   -36.921   -13.174   -12.316  0.0000  0.0000  1.0000
     3 F(19)  Bbb    -0.0735   -36.921   -13.174   -12.316 -0.0000  1.0000  0.0000
              Bcc     0.1470    73.842    26.349    24.631  1.0000  0.0000  0.0000
 

 ---------------------------------------------------------------------------------

 Calling FoFJK, ICntrl=    100127 FMM=F ISym2X=0 I1Cent= 0 IOpClX= 1 NMat=1 NMatS=1 NMatT=0.
 Full mass-weighted force constant matrix:
 Low frequencies --- -168.4704   -0.0020   -0.0018   -0.0018   85.7514   85.7514
 Low frequencies --- 1210.9043 1210.9043 1878.5783
 ******    1 imaginary frequencies (negative Signs) ****** 
 Diagonal vibrational polarizability:
        5.8861093       2.6806644       2.6806644
 Harmonic frequencies (cm**-1), IR intensities (KM/Mole), Raman scattering
 activities (A**4/AMU), depolarization ratios for plane and unpolarized
 incident light, reduced masses (AMU), force constants (mDyne/A),
 and normal coordinates:
                      1                      2                      3
                      A                      A                      A
 Frequencies --   -168.4704              1149.1830              1149.1830
 Red. masses --      1.0502                 1.0281                 1.0281
 Frc consts  --      0.0176                 0.7999                 0.7999
 IR Inten    --      4.9056               131.5491               131.5491
  Atom  AN      X      Y      Z        X      Y      Z        X      Y      Z
     1   1    -0.08  -0.00  -0.00     0.00   0.01   0.95    -0.00   0.95  -0.01
     2   1     1.00   0.00   0.00     0.00  -0.00  -0.32     0.00  -0.32   0.00
     3   9    -0.05   0.00   0.00    -0.00  -0.00  -0.03     0.00  -0.03   0.00
                      4
                      A
 Frequencies --   1878.5783
 Red. masses --      1.0614
 Frc consts  --      2.2070
 IR Inten    --    161.9280
  Atom  AN      X      Y      Z
     1   1     1.00   0.00  -0.00
     2   1     0.03  -0.00   0.00
     3   9    -0.05  -0.00   0.00

 -------------------
 - Thermochemistry -
 -------------------
 Temperature   298.150 Kelvin.  Pressure   1.00000 Atm.
 Atom     1 has atomic number  1 and mass   1.00783
 Atom     2 has atomic number  1 and mass   1.00783
 Atom     3 has atomic number  9 and mass  18.99840
 Molecular mass:    21.01405 amu.
 Principal axes and moments of inertia in atomic units:
                           1         2         3
     Eigenvalues --     0.00000  40.20633  40.20633
           X            1.00000  -0.00000   0.00000
           Y            0.00000   1.00000   0.00000
           Z            0.00000   0.00000   1.00000
 This molecule is a prolate symmetric top.
 Rotational symmetry number  1.
 Rotational temperature (Kelvin)      2.15424
 Rotational constant (GHZ):          44.886988
    1 imaginary frequencies ignored.
 Zero-point vibrational energy      24983.7 (Joules/Mol)
                                    5.97124 (Kcal/Mol)
 Vibrational temperatures:   1653.42  1653.42  2702.86
          (Kelvin)
 
 Zero-point correction=                           0.009516 (Hartree/Particle)
 Thermal correction to Energy=                    0.011918
 Thermal correction to Enthalpy=                  0.012862
 Thermal correction to Gibbs Free Energy=        -0.010103
 Sum of electronic and zero-point Energies=           -100.939962
 Sum of electronic and thermal Energies=              -100.937559
 Sum of electronic and thermal Enthalpies=            -100.936615
 Sum of electronic and thermal Free Energies=         -100.959580
 
                     E (Thermal)             CV                S
                      KCal/Mol        Cal/Mol-Kelvin    Cal/Mol-Kelvin
 Total                    7.479              5.468             48.334
 Electronic               0.000              0.000              1.377
 Translational            0.889              2.981             35.068
 Rotational               0.592              1.987             11.784
 Vibrational              5.998              0.500              0.104
                       Q            Log10(Q)             Ln(Q)
 Total Bot       0.443494D+05          4.646888         10.699854
 Total V=0       0.105642D+10          9.023839         20.778156
 Vib (Bot)       0.423153D-04         -4.373502        -10.070362
 Vib (V=0)       0.100797D+01          0.003448          0.007940
 Electronic      0.200000D+01          0.301030          0.693147
 Translational   0.378633D+07          6.578219         15.146908
 Rotational      0.138402D+03          2.141142          4.930161
 -------------------------------------------------------------------
 Center     Atomic                   Forces (Hartrees/Bohr)
 Number     Number              X              Y              Z
 -------------------------------------------------------------------
      1        1           0.108711682   -0.000000000   -0.000000000
      2        1           0.001097335   -0.000000000   -0.000000000
      3        9          -0.109809017    0.000000000    0.000000000
 -------------------------------------------------------------------
 Cartesian Forces:  Max     0.109809017 RMS     0.051507771

 GradGradGradGradGradGradGradGradGradGradGradGradGradGradGradGradGradGrad
 Berny optimization.
 Search for a local minimum.
 Step number   1 out of a maximum of    2
 All quantities printed in internal units (Hartrees-Bohrs-Radians)
 Second derivative matrix not updated -- analytic derivatives used.
 The second derivative matrix:
                          X1        Y1        Z1        X2        Y2
           X1           0.12729
           Y1           0.00000   0.05313
           Z1          -0.00000  -0.00000   0.05313
           X2           0.00402   0.00000  -0.00000  -0.00091
           Y2           0.00000  -0.00028   0.00000   0.00000   0.00027
           Z2          -0.00000   0.00000  -0.00028  -0.00000  -0.00000
           X3          -0.13131  -0.00000   0.00000  -0.00311  -0.00000
           Y3          -0.00000  -0.05286   0.00000  -0.00000   0.00001
           Z3           0.00000   0.00000  -0.05286   0.00000  -0.00000
                          Z2        X3        Y3        Z3
           Z2           0.00027
           X3           0.00000   0.13443
           Y3          -0.00000   0.00000   0.05285
           Z3           0.00001  -0.00000  -0.00000   0.05285
 ITU=  0
     Eigenvalues ---   -0.00140   0.06846   0.06846   0.21333
 Eigenvalue     1 is  -1.40D-03 should be greater than     0.000000 Eigenvector:
                          X2        X1        X3        Y1        Z1
   1                    0.93883  -0.25943  -0.22647  -0.00000  -0.00000
                          Y2        Y3        Z2        Z3
   1                    0.00000   0.00000   0.00000   0.00000
 Quadratic step=1.768D+00 exceeds max=3.000D-01 adjusted using Lamda=-2.514D-01.
 Angle between NR and scaled steps=  66.54 degrees.
 Angle between quadratic step and forces=  25.39 degrees.
 Linear search not attempted -- first point.
 B after Tr=    -0.070979    0.000000    0.000000
         Rot=    0.719676   -0.694310    0.000000   -0.000000 Ang= -87.94 deg.
 Variable       Old X    -DE/DX   Delta X   Delta X   Delta X     New X
                                 (Linear)    (Quad)   (Total)
    X1        0.00000   0.10871   0.00000   0.27799   0.20701   0.20701
    Y1        0.00000  -0.00000   0.00000  -0.00000  -0.00000  -0.00000
    Z1        0.00000  -0.00000   0.00000   0.00000  -0.00000  -0.00000
    X2       -4.15740   0.00110   0.00000   0.04142  -0.02956  -4.18696
    Y2        0.00000  -0.00000   0.00000   0.00000   0.00000   0.00000
    Z2        0.00000  -0.00000   0.00000  -0.00000   0.00000   0.00000
    X3        2.07870  -0.10981   0.00000  -0.10647  -0.17745   1.90125
    Y3        0.00000   0.00000   0.00000   0.00000   0.00000   0.00000
    Z3        0.00000   0.00000   0.00000  -0.00000   0.00000   0.00000
         Item               Value     Threshold  Converged?
 Maximum Force            0.109809     0.000450     NO 
 RMS     Force            0.051508     0.000300     NO 
 Maximum Displacement     0.207006     0.001800     NO 
 RMS     Displacement     0.091417     0.001200     NO 
 Predicted change in Energy=-3.233110D-02
 GradGradGradGradGradGradGradGradGradGradGradGradGradGradGradGradGradGrad


 ----------------------------------------------------------------------

 Electric dipole moment (input orientation):
 (Debye = 10**-18 statcoulomb cm , SI units = C m)
                  (au)            (Debye)         (10**-30 SI)
   Tot        0.920213D+00      0.233895D+01      0.780189D+01
   x         -0.920213D+00     -0.233895D+01     -0.780189D+01
   y          0.000000D+00      0.000000D+00      0.000000D+00
   z          0.000000D+00      0.000000D+00      0.000000D+00

 Dipole polarizability, Alpha (input orientation).
 (esu units = cm**3 , SI units = C**2 m**2 J**-1)
 Alpha(0;0):
               (au)            (10**-24 esu)      (10**-40 SI)
   iso        0.558043D+01      0.826935D+00      0.920089D+00
   aniso      0.951950D+01      0.141064D+01      0.156955D+01
   xx         0.119268D+02      0.176736D+01      0.196646D+01
   yx         0.000000D+00      0.000000D+00      0.000000D+00
   yy         0.240727D+01      0.356720D+00      0.396905D+00
   zx         0.000000D+00      0.000000D+00      0.000000D+00
   zy         0.000000D+00      0.000000D+00      0.000000D+00
   zz         0.240727D+01      0.356720D+00      0.396905D+00

 ----------------------------------------------------------------------

 Dipole orientation:
     1          0.00000000          0.00000000          0.00000000
     1         -0.00000000         -0.00000000          4.15739747
     9          0.00000000          0.00000000         -2.07869874

 Electric dipole moment (dipole orientation):
 (Debye = 10**-18 statcoulomb cm , SI units = C m)
                  (au)            (Debye)         (10**-30 SI)
   Tot        0.920213D+00      0.233895D+01      0.780189D+01
   x          0.000000D+00      0.000000D+00      0.000000D+00
   y          0.000000D+00      0.000000D+00      0.000000D+00
   z          0.920213D+00      0.233895D+01      0.780189D+01

 Dipole polarizability, Alpha (dipole orientation).
 (esu units = cm**3 , SI units = C**2 m**2 J**-1)
 Alpha(0;0):
               (au)            (10**-24 esu)      (10**-40 SI)
   iso        0.558043D+01      0.826935D+00      0.920089D+00
   aniso      0.951950D+01      0.141064D+01      0.156955D+01
   xx         0.240727D+01      0.356720D+00      0.396905D+00
   yx         0.000000D+00      0.000000D+00      0.000000D+00
   yy         0.240727D+01      0.356720D+00      0.396905D+00
   zx         0.000000D+00      0.000000D+00      0.000000D+00
   zy         0.000000D+00      0.000000D+00      0.000000D+00
   zz         0.119268D+02      0.176736D+01      0.196646D+01

 ----------------------------------------------------------------------
 Unable to Open any file for archive entry.
 1\1\GINC-DESKTOP-B3RIHJD\Freq\UB3LYP\6-311G(d,p)\F1H2(2)\GARYX\22-Aug-
 2025\0\\# sp b3lyp/6-311g** Force nosymm scf=(qc)\\Title Card Required
 \\0,2\H,0.,0.,0.\H,-2.2,0.,0.\F,1.1,0.,0.\\Version=ES64L-G16RevC.01\HF
 =-100.9494777\S2=0.750165\S2-1=0.\S2A=0.75\RMSD=1.262e-11\RMSF=5.151e-
 02\ZeroPoint=0.0095158\Thermal=0.0119183\ETot=-100.9375594\HTot=-100.9
 366152\GTot=-100.9595803\Dipole=-0.9202135,0.,0.\DipoleDeriv=0.403536,
 0.,0.,0.,0.3849465,0.,0.,0.,0.3849465,-0.0571403,0.,0.,0.,0.0192481,0.
 ,0.,0.,0.0192481,-0.3463957,0.,0.,0.,-0.4041946,0.,0.,0.,-0.4041946\Po
 lar=11.9267665,0.,2.4072674,0.,0.,2.4072674\Quadrupole=-0.5405744,0.27
 02872,0.2702872,0.,0.,0.\PG=C*V [C*(H1H1F1)]\NImag=1\\0.12729106,0.,0.
 05313250,0.,0.,0.05313250,0.00402231,0.,0.,-0.00090773,0.,-0.00027736,
 0.,0.,0.00026832,0.,0.,-0.00027736,0.,0.,0.00026832,-0.13131337,0.,0.,
 -0.00311459,0.,0.,0.13442796,0.,-0.05285515,0.,0.,0.00000904,0.,0.,0.0
 5284611,0.,0.,-0.05285515,0.,0.,0.00000904,0.,0.,0.05284611\\-0.108711
 68,0.,0.,-0.00109734,0.,0.,0.10980902,0.,0.\\\@
 The archive entry for this job was punched.


 PERICLES, SOPHOCLES,
 PELOPONESIAN WAR,
 FRENCH VERBS, LATIN VERBS
 H2SO4.
 Job cpu time:       0 days  0 hours  0 minutes 13.7 seconds.
 Elapsed time:       0 days  0 hours  0 minutes  1.9 seconds.
 File lengths (MBytes):  RWF=      6 Int=      0 D2E=      0 Chk=      1 Scr=      1
 Normal termination of Gaussian 16 at Fri Aug 22 16:05:28 2025.
