 Entering Gaussian System, Link 0=g16
 Initial command:
 /home/garyx/gaussian/g16/l1.exe "/tmp/gaussian_scratch/Gau-304457.inp" -scrdir="/tmp/gaussian_scratch/"
 Entering Link 1 = /home/garyx/gaussian/g16/l1.exe PID=    304459.
  
 Copyright (c) 1988-2019, Gaussian, Inc.  All Rights Reserved.
  
 This is part of the Gaussian(R) 16 program.  It is based on
 the Gaussian(R) 09 system (copyright 2009, Gaussian, Inc.),
 the Gaussian(R) 03 system (copyright 2003, Gaussian, Inc.),
 the Gaussian(R) 98 system (copyright 1998, Gaussian, Inc.),
 the Gaussian(R) 94 system (copyright 1995, Gaussian, Inc.),
 the Gaussian 92(TM) system (copyright 1992, Gaussian, Inc.),
 the Gaussian 90(TM) system (copyright 1990, Gaussian, Inc.),
 the Gaussian 88(TM) system (copyright 1988, Gaussian, Inc.),
 the Gaussian 86(TM) system (copyright 1986, Carnegie Mellon
 University), and the Gaussian 82(TM) system (copyright 1983,
 Carnegie Mellon University). Gaussian is a federally registered
 trademark of Gaussian, Inc.
  
 This software contains proprietary and confidential information,
 including trade secrets, belonging to Gaussian, Inc.
  
 This software is provided under written license and may be
 used, copied, transmitted, or stored only in accord with that
 written license.
  
 The following legend is applicable only to US Government
 contracts under FAR:
  
                    RESTRICTED RIGHTS LEGEND
  
 Use, reproduction and disclosure by the US Government is
 subject to restrictions as set forth in subparagraphs (a)
 and (c) of the Commercial Computer Software - Restricted
 Rights clause in FAR 52.227-19.
  
 Gaussian, Inc.
 340 Quinnipiac St., Bldg. 40, Wallingford CT 06492
  
  
 ---------------------------------------------------------------
 Warning -- This program may not be used in any manner that
 competes with the business of Gaussian, Inc. or will provide
 assistance to any competitor of Gaussian, Inc.  The licensee
 of this program is prohibited from giving any competitor of
 Gaussian, Inc. access to this program.  By using this program,
 the user acknowledges that Gaussian, Inc. is engaged in the
 business of creating and licensing software in the field of
 computational chemistry and represents and warrants to the
 licensee that it is not a competitor of Gaussian, Inc. and that
 it will not use this program in any manner prohibited above.
 ---------------------------------------------------------------
  

 Cite this work as:
 Gaussian 16, Revision C.01,
 M. J. Frisch, G. W. Trucks, H. B. Schlegel, G. E. Scuseria, 
 M. A. Robb, J. R. Cheeseman, G. Scalmani, V. Barone, 
 G. A. Petersson, H. Nakatsuji, X. Li, M. Caricato, A. V. Marenich, 
 J. Bloino, B. G. Janesko, R. Gomperts, B. Mennucci, H. P. Hratchian, 
 J. V. Ortiz, A. F. Izmaylov, J. L. Sonnenberg, D. Williams-Young, 
 F. Ding, F. Lipparini, F. Egidi, J. Goings, B. Peng, A. Petrone, 
 T. Henderson, D. Ranasinghe, V. G. Zakrzewski, J. Gao, N. Rega, 
 G. Zheng, W. Liang, M. Hada, M. Ehara, K. Toyota, R. Fukuda, 
 J. Hasegawa, M. Ishida, T. Nakajima, Y. Honda, O. Kitao, H. Nakai, 
 T. Vreven, K. Throssell, J. A. Montgomery, Jr., J. E. Peralta, 
 F. Ogliaro, M. J. Bearpark, J. J. Heyd, E. N. Brothers, K. N. Kudin, 
 V. N. Staroverov, T. A. Keith, R. Kobayashi, J. Normand, 
 K. Raghavachari, A. P. Rendell, J. C. Burant, S. S. Iyengar, 
 J. Tomasi, M. Cossi, J. M. Millam, M. Klene, C. Adamo, R. Cammi, 
 J. W. Ochterski, R. L. Martin, K. Morokuma, O. Farkas, 
 J. B. Foresman, and D. J. Fox, Gaussian, Inc., Wallingford CT, 2019.
 
 ******************************************
 Gaussian 16:  ES64L-G16RevC.01  3-Jul-2019
                22-Aug-2025 
 ******************************************
 %mem=10GB
 %nprocs=8
 Will use up to    8 processors via shared memory.
 -----------------------------------------
 # sp b3lyp/6-311g** Force nosymm scf=(qc)
 -----------------------------------------
 1/10=4,30=1,38=1/1,3;
 2/12=2,15=1,17=6,18=5,40=1/2;
 3/5=4,6=6,7=101,11=2,25=1,30=1,71=2,74=-5,140=1/1,2,3;
 4//1;
 5/5=2,8=3,38=5,98=1/8;
 8/6=4,10=90,11=11/1;
 11/6=1,8=1,9=11,15=111,16=1,31=1/1,2,10;
 10/6=1,31=1/2;
 6/7=2,8=2,9=2,10=2,28=1/1;
 7/8=1,10=1,25=1,30=1/1,2,3,16;
 1/10=4,30=1/3;
 99//99;
 -------------------
 Title Card Required
 -------------------
 Symbolic Z-matrix:
 Charge =  0 Multiplicity = 2
 H                     0.        0.        0. 
 H                    -0.65      0.        0. 
 F                     1.45      0.        0. 
 

 GradGradGradGradGradGradGradGradGradGradGradGradGradGradGradGradGradGrad
 Berny optimization.
 Initialization pass.
 Trust Radius=3.00D-01 FncErr=1.00D-07 GrdErr=1.00D-07 EigMax=2.50D+02 EigMin=1.00D-04
 Number of steps in this run=      2 maximum allowed number of steps=      2.
 GradGradGradGradGradGradGradGradGradGradGradGradGradGradGradGradGradGrad

                          Input orientation:                          
 ---------------------------------------------------------------------
 Center     Atomic      Atomic             Coordinates (Angstroms)
 Number     Number       Type             X           Y           Z
 ---------------------------------------------------------------------
      1          1           0        0.000000    0.000000    0.000000
      2          1           0       -0.650000    0.000000    0.000000
      3          9           0        1.450000    0.000000    0.000000
 ---------------------------------------------------------------------
                    Distance matrix (angstroms):
                    1          2          3
     1  H    0.000000
     2  H    0.650000   0.000000
     3  F    1.450000   2.100000   0.000000
 Symmetry turned off by external request.
 Stoichiometry    FH2(2)
 Framework group  C*V[C*(HHF)]
 Deg. of freedom     2
 Full point group                 C*V     NOp   4
 Rotational constants (GHZ):           0.0000000          84.8760173          84.8760173
 Standard basis: 6-311G(d,p) (5D, 7F)
    30 basis functions,    48 primitive gaussians,    31 cartesian basis functions
     6 alpha electrons        5 beta electrons
       nuclear repulsion energy         6.3665693243 Hartrees.
 NAtoms=    3 NActive=    3 NUniq=    3 SFac= 1.00D+00 NAtFMM=   60 NAOKFM=F Big=F
 Integral buffers will be    131072 words long.
 Raffenetti 2 integral format.
 Two-electron integral symmetry is turned off.
 One-electron integrals computed using PRISM.
 NBasis=    30 RedAO= T EigKep=  1.01D-02  NBF=    30
 NBsUse=    30 1.00D-06 EigRej= -1.00D+00 NBFU=    30
 ExpMin= 1.03D-01 ExpMax= 1.14D+04 ExpMxC= 1.72D+03 IAcc=3 IRadAn=         5 AccDes= 0.00D+00
 Harris functional with IExCor=  402 and IRadAn=       5 diagonalized for initial guess.
 HarFok:  IExCor=  402 AccDes= 0.00D+00 IRadAn=         5 IDoV= 1 UseB2=F ITyADJ=14
 ICtDFT=  3500011 ScaDFX=  1.000000  1.000000  1.000000  1.000000
 FoFCou: FMM=F IPFlag=           0 FMFlag=      100000 FMFlg1=           0
         NFxFlg=           0 DoJE=T BraDBF=F KetDBF=T FulRan=T
         wScrn=  0.000000 ICntrl=       500 IOpCl=  0 I1Cent=   200000004 NGrid=           0
         NMat0=    1 NMatS0=      1 NMatT0=    0 NMatD0=    1 NMtDS0=    0 NMtDT0=    0
 Symmetry not used in FoFCou.
 Initial guess <Sx>= 0.0000 <Sy>= 0.0000 <Sz>= 0.5000 <S**2>= 0.7500 S= 0.5000
 Keep R1 and R2 ints in memory in canonical form, NReq=7127049.
 Gradient too large for Newton-Raphson -- use scaled steepest descent instead.
 Gradient too large for Newton-Raphson -- use scaled steepest descent instead.
 Gradient too large for Newton-Raphson -- use scaled steepest descent instead.
 Gradient too large for Newton-Raphson -- use scaled steepest descent instead.
     Accept linear search using points  1 and  2.
 LinEq1:  Iter=  0 NonCon=     1 RMS=4.25D-04 Max=5.89D-03 NDo=     1
 AX will form     1 AO Fock derivatives at one time.
 LinEq1:  Iter=  1 NonCon=     1 RMS=1.20D-04 Max=7.21D-04 NDo=     1
 LinEq1:  Iter=  2 NonCon=     1 RMS=3.70D-05 Max=3.06D-04 NDo=     1
 LinEq1:  Iter=  3 NonCon=     1 RMS=5.97D-06 Max=5.52D-05 NDo=     1
 LinEq1:  Iter=  4 NonCon=     1 RMS=1.02D-06 Max=8.90D-06 NDo=     1
 LinEq1:  Iter=  5 NonCon=     1 RMS=2.13D-07 Max=1.47D-06 NDo=     1
 LinEq1:  Iter=  6 NonCon=     1 RMS=4.68D-08 Max=4.43D-07 NDo=     1
 LinEq1:  Iter=  7 NonCon=     1 RMS=5.58D-09 Max=2.99D-08 NDo=     1
 LinEq1:  Iter=  8 NonCon=     0 RMS=1.10D-09 Max=5.15D-09 NDo=     1
 Linear equations converged to 1.640D-09 1.640D-08 after     8 iterations.
     Accept linear search using points  1 and  2.
     Minimum is close to point  2 DX= -1.09D-03 DF= -4.15D-11 DXR=  1.09D-03 DFR=  1.19D-06 which will be used.
 LinEq1:  Iter=  0 NonCon=     1 RMS=1.92D-06 Max=2.16D-05 NDo=     1
 LinEq1:  Iter=  1 NonCon=     1 RMS=1.17D-06 Max=1.04D-05 NDo=     1
 LinEq1:  Iter=  2 NonCon=     1 RMS=2.28D-07 Max=1.48D-06 NDo=     1
 LinEq1:  Iter=  3 NonCon=     1 RMS=5.59D-08 Max=4.97D-07 NDo=     1
 LinEq1:  Iter=  4 NonCon=     1 RMS=7.45D-09 Max=5.83D-08 NDo=     1
 LinEq1:  Iter=  5 NonCon=     1 RMS=1.88D-09 Max=1.37D-08 NDo=     1
 LinEq1:  Iter=  6 NonCon=     1 RMS=4.14D-10 Max=2.94D-09 NDo=     1
 LinEq1:  Iter=  7 NonCon=     0 RMS=9.53D-11 Max=8.81D-10 NDo=     1
 Linear equations converged to 2.655D-10 2.655D-09 after     7 iterations.
 SCF Done:  E(UB3LYP) =  -100.926094130     a.u. after    7 cycles
            Convg  =    0.1104D-08                    30 Fock formations.
              S**2 =  0.7539                  -V/T =  2.0001
 <Sx>= 0.0000 <Sy>= 0.0000 <Sz>= 0.5000 <S**2>= 0.7539 S= 0.5020
 <L.S>=  0.00000000000    
 Annihilation of the first spin contaminant:
 S**2 before annihilation     0.7539,   after     0.7500
 DoSCS=F DFT=T ScalE2(SS,OS)=  1.000000  1.000000
 Range of M.O.s used for correlation:     1    30
 NBasis=    30 NAE=     6 NBE=     5 NFC=     0 NFV=     0
 NROrb=     30 NOA=     6 NOB=     5 NVA=    24 NVB=    25
 Symmetrizing basis deriv contribution to polar:
 IMax=3 JMax=2 DiffMx= 0.00D+00
 G2DrvN: will do     4 centers at a time, making    1 passes.
 Calling FoFCou, ICntrl=  3107 FMM=F I1Cent=   0 AccDes= 0.00D+00.
 End of G2Drv F.D. properties file   721 does not exist.
 End of G2Drv F.D. properties file   722 does not exist.
 End of G2Drv F.D. properties file   788 does not exist.
          IDoAtm=111
          Differentiating once with respect to electric field.
                with respect to dipole field.
          Differentiating once with respect to nuclear coordinates.
 Keep R1 and R2 ints in memory in canonical form, NReq=7101505.
          There are    12 degrees of freedom in the 1st order CPHF.  IDoFFX=6 NUNeed=     3.
      9 vectors produced by pass  0 Test12= 2.24D-15 8.33D-09 XBig12= 3.20D+01 5.31D+00.
 AX will form     9 AO Fock derivatives at one time.
      9 vectors produced by pass  1 Test12= 2.24D-15 8.33D-09 XBig12= 2.59D+00 5.83D-01.
      9 vectors produced by pass  2 Test12= 2.24D-15 8.33D-09 XBig12= 4.59D-01 3.11D-01.
      9 vectors produced by pass  3 Test12= 2.24D-15 8.33D-09 XBig12= 4.16D-03 2.98D-02.
      9 vectors produced by pass  4 Test12= 2.24D-15 8.33D-09 XBig12= 1.25D-05 1.11D-03.
      5 vectors produced by pass  5 Test12= 2.24D-15 8.33D-09 XBig12= 4.17D-08 6.66D-05.
      2 vectors produced by pass  6 Test12= 2.24D-15 8.33D-09 XBig12= 1.74D-10 4.44D-06.
      1 vectors produced by pass  7 Test12= 2.24D-15 8.33D-09 XBig12= 2.81D-13 2.60D-07.
 InvSVY:  IOpt=1 It=  1 EMax= 7.53D-16
 Solved reduced A of dimension    53 with     9 vectors.
 Isotropic polarizability for W=    0.000000        7.14 Bohr**3.
 End of Minotr F.D. properties file   721 does not exist.
 End of Minotr F.D. properties file   722 does not exist.
 End of Minotr F.D. properties file   788 does not exist.

 **********************************************************************

            Population analysis using the SCF Density.

 **********************************************************************

 Alpha  occ. eigenvalues --  -24.71347  -1.18654  -0.58041  -0.43228  -0.43006
 Alpha  occ. eigenvalues --   -0.43006
 Alpha virt. eigenvalues --    0.10924   0.19584   0.48304   0.88300   0.88300
 Alpha virt. eigenvalues --    0.96912   1.09981   1.09981   1.36210   1.65419
 Alpha virt. eigenvalues --    1.87746   1.87746   1.88032   2.45017   3.45720
 Alpha virt. eigenvalues --    3.73791   3.73791   3.77774   3.77774   4.44598
 Alpha virt. eigenvalues --    5.98520   5.98520   6.11120  66.60045
  Beta  occ. eigenvalues --  -24.68665  -1.11337  -0.50083  -0.40410  -0.40410
  Beta virt. eigenvalues --   -0.22931   0.12008   0.20388   0.50808   0.89519
  Beta virt. eigenvalues --    0.89519   1.03000   1.12192   1.12192   1.40080
  Beta virt. eigenvalues --    1.68336   1.88981   1.89049   1.89049   2.48020
  Beta virt. eigenvalues --    3.52129   3.79153   3.79153   3.81823   3.81823
  Beta virt. eigenvalues --    4.51634   6.00756   6.00756   6.22200  66.62693
          Condensed to atoms (all electrons):
               1          2          3
     1  H    0.448531   0.374763   0.032716
     2  H    0.374763   0.641206  -0.016372
     3  F    0.032716  -0.016372   9.128049
          Atomic-Atomic Spin Densities.
               1          2          3
     1  H   -0.040734   0.041149  -0.031958
     2  H    0.041149   0.219804  -0.032551
     3  F   -0.031958  -0.032551   0.867649
 Mulliken charges and spin densities:
               1          2
     1  H    0.143990  -0.031543
     2  H    0.000403   0.228403
     3  F   -0.144393   0.803140
 Sum of Mulliken charges =   0.00000   1.00000
 Mulliken charges and spin densities with hydrogens summed into heavy atoms:
               1          2
     3  F    0.000000   1.000000
 APT charges:
               1
     1  H   -0.193693
     2  H    0.168879
     3  F    0.024814
 Sum of APT charges =   0.00000
 APT charges with hydrogens summed into heavy atoms:
               1
     3  F    0.000000
 Electronic spatial extent (au):  <R**2>=             84.0236
 Charge=              0.0000 electrons
 Dipole moment (field-independent basis, Debye):
    X=             -1.0443    Y=             -0.0000    Z=             -0.0000  Tot=              1.0443
 Quadrupole moment (field-independent basis, Debye-Ang):
   XX=             -6.7912   YY=             -6.6527   ZZ=             -6.6527
   XY=              0.0000   XZ=             -0.0000   YZ=             -0.0000
 Traceless Quadrupole moment (field-independent basis, Debye-Ang):
   XX=             -0.0923   YY=              0.0462   ZZ=              0.0462
   XY=              0.0000   XZ=             -0.0000   YZ=             -0.0000
 Octapole moment (field-independent basis, Debye-Ang**2):
  XXX=            -18.8598  YYY=             -0.0000  ZZZ=             -0.0000  XYY=             -6.5792
  XXY=              0.0000  XXZ=             -0.0000  XZZ=             -6.5792  YZZ=             -0.0000
  YYZ=             -0.0000  XYZ=             -0.0000
 Hexadecapole moment (field-independent basis, Debye-Ang**3):
 XXXX=            -61.3074 YYYY=             -4.3291 ZZZZ=             -4.3291 XXXY=              0.0000
 XXXZ=             -0.0000 YYYX=              0.0000 YYYZ=             -0.0000 ZZZX=             -0.0000
 ZZZY=             -0.0000 XXYY=            -12.0910 XXZZ=            -12.0910 YYZZ=             -1.4430
 XXYZ=             -0.0000 YYXZ=             -0.0000 ZZXY=              0.0000
 N-N= 6.366569324255D+00 E-N=-2.541454116221D+02  KE= 1.009122501881D+02
  Exact polarizability:      16.840       0.000       2.291      -0.000      -0.000       2.291
 Approx polarizability:      20.717      -0.000       2.340      -0.000       0.000       2.340
                          Isotropic Fermi Contact Couplings
        Atom                 a.u.       MegaHertz       Gauss      10(-4) cm-1
     1  H(1)               0.01091      48.74656      17.39398      16.26010
     2  H(1)               0.10362     463.17427     165.27210     154.49831
     3  F(19)              0.03831     161.19377      57.51794      53.76845
 --------------------------------------------------------
       Center         ----  Spin Dipole Couplings  ----
                      3XX-RR        3YY-RR        3ZZ-RR
 --------------------------------------------------------
     1   Atom        0.200650     -0.100325     -0.100325
     2   Atom        0.036051     -0.018025     -0.018025
     3   Atom        5.362038     -2.681019     -2.681019
 --------------------------------------------------------
                        XY            XZ            YZ
 --------------------------------------------------------
     1   Atom        0.000000      0.000000      0.000000
     2   Atom        0.000000      0.000000      0.000000
     3   Atom        0.000000      0.000000      0.000000
 --------------------------------------------------------


 ---------------------------------------------------------------------------------
              Anisotropic Spin Dipole Couplings in Principal Axis System
 ---------------------------------------------------------------------------------

       Atom             a.u.   MegaHertz   Gauss  10(-4) cm-1        Axes

              Baa    -0.1003   -53.529   -19.100   -17.855 -0.0000  1.0000  0.0000
     1 H(1)   Bbb    -0.1003   -53.529   -19.100   -17.855  0.0000  0.0000  1.0000
              Bcc     0.2007   107.057    38.201    35.711  1.0000  0.0000  0.0000
 
              Baa    -0.0180    -9.617    -3.432    -3.208 -0.0000  1.0000  0.0000
     2 H(1)   Bbb    -0.0180    -9.617    -3.432    -3.208  0.0000  0.0000  1.0000
              Bcc     0.0361    19.235     6.863     6.416  1.0000  0.0000  0.0000
 
              Baa    -2.6810 -1346.476  -480.456  -449.136  0.0000  0.0000  1.0000
     3 F(19)  Bbb    -2.6810 -1346.476  -480.456  -449.136 -0.0000  1.0000  0.0000
              Bcc     5.3620  2692.953   960.913   898.272  1.0000  0.0000  0.0000
 

 ---------------------------------------------------------------------------------

 Calling FoFJK, ICntrl=    100127 FMM=F ISym2X=0 I1Cent= 0 IOpClX= 1 NMat=1 NMatS=1 NMatT=0.
 Full mass-weighted force constant matrix:
 Low frequencies ----2251.3137-2251.3137 -153.3712 -153.3712   -0.0017    0.0002
 Low frequencies ---    0.0002  393.1481 5718.1099
 ******    2 imaginary frequencies (negative Signs) ****** 
 Diagonal vibrational polarizability:
       12.5296041       0.0032446       0.0032446
 Harmonic frequencies (cm**-1), IR intensities (KM/Mole), Raman scattering
 activities (A**4/AMU), depolarization ratios for plane and unpolarized
 incident light, reduced masses (AMU), force constants (mDyne/A),
 and normal coordinates:
                      1                      2                      3
                      A                      A                      A
 Frequencies --  -2213.9452             -2213.9452               393.1481
 Red. masses --      1.0111                 1.0111                 1.1084
 Frc consts  --      2.9200                 2.9200                 0.1009
 IR Inten    --      0.5910                 0.5910                69.2177
  Atom  AN      X      Y      Z        X      Y      Z        X      Y      Z
     1   1     0.00  -0.00   0.82    -0.00   0.82   0.00     0.73   0.00  -0.00
     2   1     0.00   0.00  -0.57    -0.00  -0.57  -0.00     0.68  -0.00   0.00
     3   9    -0.00   0.00  -0.01     0.00  -0.01  -0.00    -0.07  -0.00   0.00
                      4
                      A
 Frequencies --   5718.1099
 Red. masses --      1.0079
 Frc consts  --     19.4173
 IR Inten    --    580.9969
  Atom  AN      X      Y      Z
     1   1    -0.68  -0.00   0.00
     2   1     0.73   0.00  -0.00
     3   9    -0.00   0.00  -0.00

 -------------------
 - Thermochemistry -
 -------------------
 Temperature   298.150 Kelvin.  Pressure   1.00000 Atm.
 Atom     1 has atomic number  1 and mass   1.00783
 Atom     2 has atomic number  1 and mass   1.00783
 Atom     3 has atomic number  9 and mass  18.99840
 Molecular mass:    21.01405 amu.
 Principal axes and moments of inertia in atomic units:
                           1         2         3
     Eigenvalues --     0.00000  21.26326  21.26326
           X            1.00000  -0.00000   0.00000
           Y            0.00000   1.00000   0.00000
           Z            0.00000   0.00000   1.00000
 This molecule is a prolate symmetric top.
 Rotational symmetry number  1.
 Rotational temperature (Kelvin)      4.07341
 Rotational constant (GHZ):          84.876017
    2 imaginary frequencies ignored.
 Zero-point vibrational energy      36553.4 (Joules/Mol)
                                    8.73648 (Kcal/Mol)
 Warning -- explicit consideration of   1 degrees of freedom as
           vibrations may cause significant error
 Vibrational temperatures:    565.65  8227.08
          (Kelvin)
 
 Zero-point correction=                           0.013922 (Hartree/Particle)
 Thermal correction to Energy=                    0.016599
 Thermal correction to Enthalpy=                  0.017543
 Thermal correction to Gibbs Free Energy=        -0.005240
 Sum of electronic and zero-point Energies=           -100.912172
 Sum of electronic and thermal Energies=              -100.909495
 Sum of electronic and thermal Enthalpies=            -100.908551
 Sum of electronic and thermal Free Energies=         -100.931335
 
                     E (Thermal)             CV                S
                      KCal/Mol        Cal/Mol-Kelvin    Cal/Mol-Kelvin
 Total                   10.416              6.453             47.952
 Electronic               0.000              0.000              1.377
 Translational            0.889              2.981             35.068
 Rotational               0.592              1.987             10.519
 Vibrational              8.935              1.485              0.988
 Vibration     1          0.760              1.485              0.988
                       Q            Log10(Q)             Ln(Q)
 Total Bot       0.257285D+03          2.410414          5.550183
 Total V=0       0.652079D+09          8.814300         20.295676
 Vib (Bot)       0.464182D-06         -6.333312        -14.582989
 Vib (Bot)    1  0.455618D+00         -0.341399         -0.786100
 Vib (V=0)       0.117645D+01          0.070574          0.162503
 Vib (V=0)    1  0.117645D+01          0.070574          0.162503
 Electronic      0.200000D+01          0.301030          0.693147
 Translational   0.378633D+07          6.578219         15.146908
 Rotational      0.731943D+02          1.864477          4.293117
 -------------------------------------------------------------------
 Center     Atomic                   Forces (Hartrees/Bohr)
 Number     Number              X              Y              Z
 -------------------------------------------------------------------
      1        1           0.112277585    0.000000000   -0.000000000
      2        1          -0.116112289   -0.000000000    0.000000000
      3        9           0.003834704    0.000000000    0.000000000
 -------------------------------------------------------------------
 Cartesian Forces:  Max     0.116112289 RMS     0.053854768

 GradGradGradGradGradGradGradGradGradGradGradGradGradGradGradGradGradGrad
 Berny optimization.
 Search for a local minimum.
 Step number   1 out of a maximum of    2
 All quantities printed in internal units (Hartrees-Bohrs-Radians)
 Second derivative matrix not updated -- analytic derivatives used.
 The second derivative matrix:
                          X1        Y1        Z1        X2        Y2
           X1           0.58502
           Y1           0.00000  -0.09840
           Z1          -0.00000  -0.00000  -0.09840
           X2          -0.61942  -0.00000   0.00000   0.66721
           Y2          -0.00000   0.09624   0.00000   0.00000  -0.09571
           Z2           0.00000   0.00000   0.09624  -0.00000   0.00000
           X3           0.03440  -0.00000   0.00000  -0.04779   0.00000
           Y3           0.00000   0.00217   0.00000  -0.00000  -0.00053
           Z3          -0.00000   0.00000   0.00217   0.00000  -0.00000
                          Z2        X3        Y3        Z3
           Z2          -0.09571
           X3          -0.00000   0.01338
           Y3          -0.00000   0.00000  -0.00164
           Z3          -0.00053  -0.00000   0.00000  -0.00164
 ITU=  0
     Eigenvalues ---   -0.18655  -0.18655   0.01210   1.24865
 Eigenvalue     1 is  -1.87D-01 should be greater than     0.000000 Eigenvector:
                          Z1        Z2        Z3        Y1        Y2
   1                    0.81989  -0.56612  -0.08459   0.00925  -0.00638
                          Y3        X1        X3        X2
   1                   -0.00095   0.00000  -0.00000   0.00000
 Eigenvalue     2 is  -1.87D-01 should be greater than     0.000000 Eigenvector:
                          Y1        Y2        Y3        Z1        Z2
   1                    0.81989  -0.56612  -0.08459  -0.00925   0.00638
                          Z3        X1        X3        X2
   1                    0.00095  -0.00000   0.00000  -0.00000
 Quadratic step=3.565D-01 exceeds max=3.000D-01 adjusted using Lamda=-2.728D-03.
 Angle between NR and scaled steps=   4.19 degrees.
 Angle between quadratic step and forces=  63.12 degrees.
 Linear search not attempted -- first point.
 B after Tr=    -0.075116    0.000000    0.000000
         Rot=    0.990011    0.140987   -0.000000    0.000000 Ang=  16.21 deg.
 Variable       Old X    -DE/DX   Delta X   Delta X   Delta X     New X
                                 (Linear)    (Quad)   (Total)
    X1        0.00000   0.11228   0.00000   0.26977   0.19465   0.19465
    Y1        0.00000   0.00000   0.00000   0.00000   0.00000   0.00000
    Z1        0.00000  -0.00000   0.00000  -0.00000  -0.00000  -0.00000
    X2       -1.22832  -0.11611   0.00000   0.06825  -0.00686  -1.23518
    Y2        0.00000  -0.00000   0.00000  -0.00000   0.00000   0.00000
    Z2        0.00000   0.00000   0.00000   0.00000   0.00000   0.00000
    X3        2.74010   0.00383   0.00000  -0.11267  -0.18779   2.55231
    Y3        0.00000   0.00000   0.00000  -0.00000  -0.00000  -0.00000
    Z3        0.00000   0.00000   0.00000   0.00000  -0.00000  -0.00000
         Item               Value     Threshold  Converged?
 Maximum Force            0.116112     0.000450     NO 
 RMS     Force            0.053855     0.000300     NO 
 Maximum Displacement     0.194651     0.001800     NO 
 RMS     Displacement     0.090185     0.001200     NO 
 Predicted change in Energy=-1.108868D-02
 GradGradGradGradGradGradGradGradGradGradGradGradGradGradGradGradGradGrad


 ----------------------------------------------------------------------

 Electric dipole moment (input orientation):
 (Debye = 10**-18 statcoulomb cm , SI units = C m)
                  (au)            (Debye)         (10**-30 SI)
   Tot        0.410845D+00      0.104426D+01      0.348329D+01
   x         -0.410845D+00     -0.104426D+01     -0.348329D+01
   y          0.000000D+00      0.000000D+00      0.000000D+00
   z          0.000000D+00      0.000000D+00      0.000000D+00

 Dipole polarizability, Alpha (input orientation).
 (esu units = cm**3 , SI units = C**2 m**2 J**-1)
 Alpha(0;0):
               (au)            (10**-24 esu)      (10**-40 SI)
   iso        0.714084D+01      0.105816D+01      0.117737D+01
   aniso      0.145489D+02      0.215593D+01      0.239880D+01
   xx         0.168401D+02      0.249545D+01      0.277656D+01
   yx         0.000000D+00      0.000000D+00      0.000000D+00
   yy         0.229119D+01      0.339520D+00      0.377767D+00
   zx         0.000000D+00      0.000000D+00      0.000000D+00
   zy         0.000000D+00      0.000000D+00      0.000000D+00
   zz         0.229119D+01      0.339520D+00      0.377767D+00

 ----------------------------------------------------------------------

 Dipole orientation:
     1          0.00000000          0.00000000         -0.00000000
     1          0.00000000          0.00000000          1.22832198
     9         -0.00000000         -0.00000000         -2.74010288

 Electric dipole moment (dipole orientation):
 (Debye = 10**-18 statcoulomb cm , SI units = C m)
                  (au)            (Debye)         (10**-30 SI)
   Tot        0.410845D+00      0.104426D+01      0.348329D+01
   x          0.000000D+00      0.000000D+00      0.000000D+00
   y          0.000000D+00      0.000000D+00      0.000000D+00
   z          0.410845D+00      0.104426D+01      0.348329D+01

 Dipole polarizability, Alpha (dipole orientation).
 (esu units = cm**3 , SI units = C**2 m**2 J**-1)
 Alpha(0;0):
               (au)            (10**-24 esu)      (10**-40 SI)
   iso        0.714084D+01      0.105816D+01      0.117737D+01
   aniso      0.145489D+02      0.215593D+01      0.239880D+01
   xx         0.229119D+01      0.339520D+00      0.377767D+00
   yx         0.000000D+00      0.000000D+00      0.000000D+00
   yy         0.229119D+01      0.339520D+00      0.377767D+00
   zx         0.000000D+00      0.000000D+00      0.000000D+00
   zy         0.000000D+00      0.000000D+00      0.000000D+00
   zz         0.168401D+02      0.249545D+01      0.277656D+01

 ----------------------------------------------------------------------
 Unable to Open any file for archive entry.
 1\1\GINC-DESKTOP-B3RIHJD\Freq\UB3LYP\6-311G(d,p)\F1H2(2)\GARYX\22-Aug-
 2025\0\\# sp b3lyp/6-311g** Force nosymm scf=(qc)\\Title Card Required
 \\0,2\H,0.,0.,0.\H,-0.65,0.,0.\F,1.45,0.,0.\\Version=ES64L-G16RevC.01\
 HF=-100.9260941\S2=0.753939\S2-1=0.\S2A=0.750006\RMSD=6.728e-11\RMSF=5
 .385e-02\ZeroPoint=0.0139225\Thermal=0.016599\ETot=-100.9094951\HTot=-
 100.9085509\GTot=-100.9313345\Dipole=-0.4108454,0.,0.\DipoleDeriv=-0.7
 158554,0.,0.,0.,0.0673882,0.,0.,0.,0.0673882,0.3926811,0.,0.,0.,0.0569
 782,0.,0.,0.,0.0569782,0.3231743,0.,0.,0.,-0.1243665,0.,0.,0.,-0.12436
 65\Polar=16.8401365,0.,2.2911923,0.,0.,2.2911923\Quadrupole=-0.0686318
 ,0.0343159,0.0343159,0.,0.,0.\PG=C*V [C*(H1H1F1)]\NImag=2\\0.58502084,
 0.,-0.09840429,0.,0.,-0.09840429,-0.61942243,0.,0.,0.66720771,0.,0.096
 23828,0.,0.,-0.09571327,0.,0.,0.09623828,0.,0.,-0.09571327,0.03440159,
 0.,0.,-0.04778528,0.,0.,0.01338369,0.,0.00216601,0.,0.,-0.00052501,0.,
 0.,-0.00164101,0.,0.,0.00216601,0.,0.,-0.00052501,0.,0.,-0.00164101\\-
 0.11227759,0.,0.,0.11611229,0.,0.,-0.00383470,0.,0.\\\@
 The archive entry for this job was punched.


 THE MOST BEAUTIFUL EXPERIENCE WE CAN HAVE IS THE MYSTERIOUS.
 IT IS THE FUNDAMENTAL EMOTION WHICH STANDS AT AT THE CRADLE 
 OF TRUE ART AND TRUE SCIENCE.

                                    -- ALBERT EINSTEIN
 Job cpu time:       0 days  0 hours  0 minutes 15.4 seconds.
 Elapsed time:       0 days  0 hours  0 minutes  2.1 seconds.
 File lengths (MBytes):  RWF=      6 Int=      0 D2E=      0 Chk=      1 Scr=      1
 Normal termination of Gaussian 16 at Fri Aug 22 16:21:40 2025.
