 Entering Gaussian System, Link 0=g16
 Initial command:
 /home/garyx/gaussian/g16/l1.exe "/tmp/gaussian_scratch/Gau-836304.inp" -scrdir="/tmp/gaussian_scratch/"
 Entering Link 1 = /home/garyx/gaussian/g16/l1.exe PID=    836306.
  
 Copyright (c) 1988-2019, Gaussian, Inc.  All Rights Reserved.
  
 This is part of the Gaussian(R) 16 program.  It is based on
 the Gaussian(R) 09 system (copyright 2009, Gaussian, Inc.),
 the Gaussian(R) 03 system (copyright 2003, Gaussian, Inc.),
 the Gaussian(R) 98 system (copyright 1998, Gaussian, Inc.),
 the Gaussian(R) 94 system (copyright 1995, Gaussian, Inc.),
 the Gaussian 92(TM) system (copyright 1992, Gaussian, Inc.),
 the Gaussian 90(TM) system (copyright 1990, Gaussian, Inc.),
 the Gaussian 88(TM) system (copyright 1988, Gaussian, Inc.),
 the Gaussian 86(TM) system (copyright 1986, Carnegie Mellon
 University), and the Gaussian 82(TM) system (copyright 1983,
 Carnegie Mellon University). Gaussian is a federally registered
 trademark of Gaussian, Inc.
  
 This software contains proprietary and confidential information,
 including trade secrets, belonging to Gaussian, Inc.
  
 This software is provided under written license and may be
 used, copied, transmitted, or stored only in accord with that
 written license.
  
 The following legend is applicable only to US Government
 contracts under FAR:
  
                    RESTRICTED RIGHTS LEGEND
  
 Use, reproduction and disclosure by the US Government is
 subject to restrictions as set forth in subparagraphs (a)
 and (c) of the Commercial Computer Software - Restricted
 Rights clause in FAR 52.227-19.
  
 Gaussian, Inc.
 340 Quinnipiac St., Bldg. 40, Wallingford CT 06492
  
  
 ---------------------------------------------------------------
 Warning -- This program may not be used in any manner that
 competes with the business of Gaussian, Inc. or will provide
 assistance to any competitor of Gaussian, Inc.  The licensee
 of this program is prohibited from giving any competitor of
 Gaussian, Inc. access to this program.  By using this program,
 the user acknowledges that Gaussian, Inc. is engaged in the
 business of creating and licensing software in the field of
 computational chemistry and represents and warrants to the
 licensee that it is not a competitor of Gaussian, Inc. and that
 it will not use this program in any manner prohibited above.
 ---------------------------------------------------------------
  

 Cite this work as:
 Gaussian 16, Revision C.01,
 M. J. Frisch, G. W. Trucks, H. B. Schlegel, G. E. Scuseria, 
 M. A. Robb, J. R. Cheeseman, G. Scalmani, V. Barone, 
 G. A. Petersson, H. Nakatsuji, X. Li, M. Caricato, A. V. Marenich, 
 J. Bloino, B. G. Janesko, R. Gomperts, B. Mennucci, H. P. Hratchian, 
 J. V. Ortiz, A. F. Izmaylov, J. L. Sonnenberg, D. Williams-Young, 
 F. Ding, F. Lipparini, F. Egidi, J. Goings, B. Peng, A. Petrone, 
 T. Henderson, D. Ranasinghe, V. G. Zakrzewski, J. Gao, N. Rega, 
 G. Zheng, W. Liang, M. Hada, M. Ehara, K. Toyota, R. Fukuda, 
 J. Hasegawa, M. Ishida, T. Nakajima, Y. Honda, O. Kitao, H. Nakai, 
 T. Vreven, K. Throssell, J. A. Montgomery, Jr., J. E. Peralta, 
 F. Ogliaro, M. J. Bearpark, J. J. Heyd, E. N. Brothers, K. N. Kudin, 
 V. N. Staroverov, T. A. Keith, R. Kobayashi, J. Normand, 
 K. Raghavachari, A. P. Rendell, J. C. Burant, S. S. Iyengar, 
 J. Tomasi, M. Cossi, J. M. Millam, M. Klene, C. Adamo, R. Cammi, 
 J. W. Ochterski, R. L. Martin, K. Morokuma, O. Farkas, 
 J. B. Foresman, and D. J. Fox, Gaussian, Inc., Wallingford CT, 2019.
 
 ******************************************
 Gaussian 16:  ES64L-G16RevC.01  3-Jul-2019
                22-Aug-2025 
 ******************************************
 %mem=10GB
 %nprocs=8
 Will use up to    8 processors via shared memory.
 -----------------------------------------
 # sp b3lyp/6-311g** Force nosymm scf=(qc)
 -----------------------------------------
 1/10=4,30=1,38=1/1,3;
 2/12=2,15=1,17=6,18=5,40=1/2;
 3/5=4,6=6,7=101,11=2,25=1,30=1,71=2,74=-5,140=1/1,2,3;
 4//1;
 5/5=2,8=3,38=5,98=1/8;
 8/6=4,10=90,11=11/1;
 11/6=1,8=1,9=11,15=111,16=1,31=1/1,2,10;
 10/6=1,31=1/2;
 6/7=2,8=2,9=2,10=2,28=1/1;
 7/8=1,10=1,25=1,30=1/1,2,3,16;
 1/10=4,30=1/3;
 99//99;
 -------------------
 Title Card Required
 -------------------
 Symbolic Z-matrix:
 Charge =  0 Multiplicity = 2
 H                     0.        0.        0. 
 H                    -3.45      0.        0. 
 F                     3.15      0.        0. 
 

 GradGradGradGradGradGradGradGradGradGradGradGradGradGradGradGradGradGrad
 Berny optimization.
 Initialization pass.
 Trust Radius=3.00D-01 FncErr=1.00D-07 GrdErr=1.00D-07 EigMax=2.50D+02 EigMin=1.00D-04
 Number of steps in this run=      2 maximum allowed number of steps=      2.
 GradGradGradGradGradGradGradGradGradGradGradGradGradGradGradGradGradGrad

                          Input orientation:                          
 ---------------------------------------------------------------------
 Center     Atomic      Atomic             Coordinates (Angstroms)
 Number     Number       Type             X           Y           Z
 ---------------------------------------------------------------------
      1          1           0        0.000000    0.000000    0.000000
      2          1           0       -3.450000    0.000000    0.000000
      3          9           0        3.150000    0.000000    0.000000
 ---------------------------------------------------------------------
                    Distance matrix (angstroms):
                    1          2          3
     1  H    0.000000
     2  H    3.450000   0.000000
     3  F    3.150000   6.600000   0.000000
 Symmetry turned off by external request.
 Stoichiometry    FH2(2)
 Framework group  C*V[C*(HHF)]
 Deg. of freedom     2
 Full point group                 C*V     NOp   4
 Rotational constants (GHZ):           0.0000000          10.2498127          10.2498127
 Standard basis: 6-311G(d,p) (5D, 7F)
    30 basis functions,    48 primitive gaussians,    31 cartesian basis functions
     6 alpha electrons        5 beta electrons
       nuclear repulsion energy         2.3869248748 Hartrees.
 NAtoms=    3 NActive=    3 NUniq=    3 SFac= 1.00D+00 NAtFMM=   60 NAOKFM=F Big=F
 Integral buffers will be    131072 words long.
 Raffenetti 2 integral format.
 Two-electron integral symmetry is turned off.
 One-electron integrals computed using PRISM.
 NBasis=    30 RedAO= T EigKep=  8.90D-02  NBF=    30
 NBsUse=    30 1.00D-06 EigRej= -1.00D+00 NBFU=    30
 ExpMin= 1.03D-01 ExpMax= 1.14D+04 ExpMxC= 1.72D+03 IAcc=3 IRadAn=         5 AccDes= 0.00D+00
 Harris functional with IExCor=  402 and IRadAn=       5 diagonalized for initial guess.
 HarFok:  IExCor=  402 AccDes= 0.00D+00 IRadAn=         5 IDoV= 1 UseB2=F ITyADJ=14
 ICtDFT=  3500011 ScaDFX=  1.000000  1.000000  1.000000  1.000000
 FoFCou: FMM=F IPFlag=           0 FMFlag=      100000 FMFlg1=           0
         NFxFlg=           0 DoJE=T BraDBF=F KetDBF=T FulRan=T
         wScrn=  0.000000 ICntrl=       500 IOpCl=  0 I1Cent=   200000004 NGrid=           0
         NMat0=    1 NMatS0=      1 NMatT0=    0 NMatD0=    1 NMtDS0=    0 NMtDT0=    0
 Symmetry not used in FoFCou.
 Initial guess <Sx>= 0.0000 <Sy>= 0.0000 <Sz>= 0.5000 <S**2>= 0.7500 S= 0.5000
 Keep R1 and R2 ints in memory in canonical form, NReq=7127049.
 Gradient too large for Newton-Raphson -- use scaled steepest descent instead.
  Beta Gap=    -0.510 HL deriv= 7.91D-15 Rot set to   6.73D-01
     Minimum is close to point  3 DX=  2.70D-02 DF= -7.10D-04 DXR=  6.32D-02 DFR=  4.89D-03 which will be used.
 Gradient too large for Newton-Raphson -- use scaled steepest descent instead.
 Gradient too large for Newton-Raphson -- use scaled steepest descent instead.
     Accept linear search using points  1 and  2.
     Minimum is close to point  2 DX= -4.89D-02 DF= -6.95D-05 DXR=  5.75D-02 DFR=  2.88D-03 which will be used.
 Gradient too large for Newton-Raphson -- use scaled steepest descent instead.
     Accept linear search using points  1 and  2.
 Gradient too large for Newton-Raphson -- use scaled steepest descent instead.
     Accept linear search using points  1 and  2.
 Gradient too large for Newton-Raphson -- use scaled steepest descent instead.
 Gradient too large for Newton-Raphson -- use scaled steepest descent instead.
     Minimum is close to point  4 DX= -2.35D-02 DF= -1.35D-04 DXR=  8.52D-02 DFR=  6.05D-03 which will be used.
 Gradient too large for Newton-Raphson -- use scaled steepest descent instead.
     Accept linear search using points  1 and  2.
 Gradient too large for Newton-Raphson -- use scaled steepest descent instead.
     Accept linear search using points  1 and  2.
 Gradient too large for Newton-Raphson -- use scaled steepest descent instead.
     Accept linear search using points  2 and  3.
 Gradient too large for Newton-Raphson -- use scaled steepest descent instead.
 Gradient too large for Newton-Raphson -- use scaled steepest descent instead.
     Accept linear search using points  1 and  2.
     Minimum is close to point  2 DX= -8.59D-02 DF= -9.78D-07 DXR=  9.39D-02 DFR=  8.72D-03 which will be used.
 Gradient too large for Newton-Raphson -- use scaled steepest descent instead.
     Accept linear search using points  1 and  2.
 LinEq1:  Iter=  0 NonCon=     1 RMS=1.30D-03 Max=2.04D-02 NDo=     1
 AX will form     1 AO Fock derivatives at one time.
 LinEq1:  Iter=  1 NonCon=     1 RMS=3.48D-04 Max=4.48D-03 NDo=     1
 LinEq1:  Iter=  2 NonCon=     1 RMS=2.38D-04 Max=2.12D-03 NDo=     1
 LinEq1:  Iter=  3 NonCon=     1 RMS=5.63D-05 Max=7.56D-04 NDo=     1
 LinEq1:  Iter=  4 NonCon=     1 RMS=4.21D-06 Max=4.89D-05 NDo=     1
 LinEq1:  Iter=  5 NonCon=     1 RMS=5.12D-07 Max=5.85D-06 NDo=     1
 LinEq1:  Iter=  6 NonCon=     1 RMS=1.07D-07 Max=7.04D-07 NDo=     1
 LinEq1:  Iter=  7 NonCon=     1 RMS=1.45D-08 Max=1.45D-07 NDo=     1
 LinEq1:  Iter=  8 NonCon=     1 RMS=6.10D-09 Max=7.72D-08 NDo=     1
 LinEq1:  Iter=  9 NonCon=     0 RMS=1.13D-09 Max=4.96D-09 NDo=     1
 Linear equations converged to 1.640D-09 1.640D-08 after     9 iterations.
 Gradient too large for Newton-Raphson -- use scaled steepest descent instead.
     Accept linear search using points  2 and  3.
 LinEq1:  Iter=  0 NonCon=     1 RMS=2.23D-04 Max=3.20D-03 NDo=     1
 LinEq1:  Iter=  1 NonCon=     1 RMS=2.28D-04 Max=2.72D-03 NDo=     1
 LinEq1:  Iter=  2 NonCon=     1 RMS=1.38D-04 Max=1.47D-03 NDo=     1
 LinEq1:  Iter=  3 NonCon=     1 RMS=5.72D-06 Max=5.37D-05 NDo=     1
 LinEq1:  Iter=  4 NonCon=     1 RMS=3.97D-07 Max=2.81D-06 NDo=     1
 LinEq1:  Iter=  5 NonCon=     1 RMS=1.03D-07 Max=1.12D-06 NDo=     1
 LinEq1:  Iter=  6 NonCon=     1 RMS=1.48D-08 Max=9.52D-08 NDo=     1
 LinEq1:  Iter=  7 NonCon=     1 RMS=4.14D-09 Max=6.08D-08 NDo=     1
 LinEq1:  Iter=  8 NonCon=     0 RMS=1.29D-09 Max=6.88D-09 NDo=     1
 Linear equations converged to 1.640D-09 1.640D-08 after     8 iterations.
 LinEq1:  Iter=  0 NonCon=     1 RMS=1.90D-04 Max=1.64D-03 NDo=     1
 LinEq1:  Iter=  1 NonCon=     1 RMS=2.21D-04 Max=2.65D-03 NDo=     1
 LinEq1:  Iter=  2 NonCon=     1 RMS=1.47D-04 Max=1.53D-03 NDo=     1
 LinEq1:  Iter=  3 NonCon=     1 RMS=1.02D-05 Max=1.09D-04 NDo=     1
 LinEq1:  Iter=  4 NonCon=     1 RMS=1.19D-06 Max=9.76D-06 NDo=     1
 LinEq1:  Iter=  5 NonCon=     1 RMS=1.30D-07 Max=9.45D-07 NDo=     1
 LinEq1:  Iter=  6 NonCon=     1 RMS=1.68D-08 Max=9.46D-08 NDo=     1
 LinEq1:  Iter=  7 NonCon=     1 RMS=3.37D-09 Max=2.14D-08 NDo=     1
 LinEq1:  Iter=  8 NonCon=     1 RMS=1.38D-09 Max=1.96D-08 NDo=     1
 LinEq1:  Iter=  9 NonCon=     0 RMS=4.58D-10 Max=3.97D-09 NDo=     1
 Linear equations converged to 1.640D-09 1.640D-08 after     9 iterations.
     Minimum is close to point  2 DX= -2.67D-02 DF= -7.68D-08 DXR=  2.74D-02 DFR=  7.51D-04 which will be used.
 LinEq1:  Iter=  0 NonCon=     1 RMS=1.88D-04 Max=2.04D-03 NDo=     1
 LinEq1:  Iter=  1 NonCon=     1 RMS=7.18D-05 Max=5.71D-04 NDo=     1
 LinEq1:  Iter=  2 NonCon=     1 RMS=6.61D-05 Max=8.84D-04 NDo=     1
 LinEq1:  Iter=  3 NonCon=     1 RMS=1.80D-05 Max=1.50D-04 NDo=     1
 LinEq1:  Iter=  4 NonCon=     1 RMS=1.42D-06 Max=1.44D-05 NDo=     1
 LinEq1:  Iter=  5 NonCon=     1 RMS=2.17D-07 Max=2.42D-06 NDo=     1
 LinEq1:  Iter=  6 NonCon=     1 RMS=4.23D-08 Max=3.34D-07 NDo=     1
 LinEq1:  Iter=  7 NonCon=     1 RMS=4.24D-09 Max=3.48D-08 NDo=     1
 LinEq1:  Iter=  8 NonCon=     0 RMS=4.56D-10 Max=3.09D-09 NDo=     1
 Linear equations converged to 1.640D-09 1.640D-08 after     8 iterations.
 LinEq1:  Iter=  0 NonCon=     1 RMS=2.55D-05 Max=2.31D-04 NDo=     1
 LinEq1:  Iter=  1 NonCon=     1 RMS=1.03D-05 Max=1.05D-04 NDo=     1
 LinEq1:  Iter=  2 NonCon=     1 RMS=7.54D-06 Max=6.39D-05 NDo=     1
 LinEq1:  Iter=  3 NonCon=     1 RMS=1.98D-06 Max=1.58D-05 NDo=     1
 LinEq1:  Iter=  4 NonCon=     1 RMS=1.52D-07 Max=1.01D-06 NDo=     1
 LinEq1:  Iter=  5 NonCon=     1 RMS=2.67D-08 Max=3.22D-07 NDo=     1
 LinEq1:  Iter=  6 NonCon=     1 RMS=3.85D-09 Max=2.68D-08 NDo=     1
 LinEq1:  Iter=  7 NonCon=     0 RMS=2.91D-10 Max=2.61D-09 NDo=     1
 Linear equations converged to 1.640D-09 1.640D-08 after     7 iterations.
     Accept linear search using points  1 and  2.
     Minimum is close to point  2 DX= -4.26D-02 DF= -1.13D-09 DXR=  4.45D-02 DFR=  2.04D-03 which will be used.
 LinEq1:  Iter=  0 NonCon=     1 RMS=1.32D-06 Max=1.50D-05 NDo=     1
 LinEq1:  Iter=  1 NonCon=     1 RMS=5.53D-07 Max=5.65D-06 NDo=     1
 LinEq1:  Iter=  2 NonCon=     1 RMS=4.69D-07 Max=5.24D-06 NDo=     1
 LinEq1:  Iter=  3 NonCon=     1 RMS=1.31D-07 Max=1.11D-06 NDo=     1
 LinEq1:  Iter=  4 NonCon=     1 RMS=9.23D-09 Max=9.45D-08 NDo=     1
 LinEq1:  Iter=  5 NonCon=     1 RMS=1.45D-09 Max=1.63D-08 NDo=     1
 LinEq1:  Iter=  6 NonCon=     0 RMS=2.80D-10 Max=2.31D-09 NDo=     1
 Linear equations converged to 4.702D-10 4.702D-09 after     6 iterations.
 LinEq1:  Iter=  0 NonCon=     1 RMS=2.58D-08 Max=2.29D-07 NDo=     1
 LinEq1:  Iter=  1 NonCon=     1 RMS=1.90D-08 Max=2.59D-07 NDo=     1
 LinEq1:  Iter=  2 NonCon=     1 RMS=6.45D-09 Max=5.64D-08 NDo=     1
 LinEq1:  Iter=  3 NonCon=     1 RMS=2.34D-09 Max=3.20D-08 NDo=     1
 LinEq1:  Iter=  4 NonCon=     1 RMS=9.93D-10 Max=7.27D-09 NDo=     1
 LinEq1:  Iter=  5 NonCon=     1 RMS=1.54D-10 Max=1.41D-09 NDo=     1
 LinEq1:  Iter=  6 NonCon=     1 RMS=1.16D-11 Max=8.92D-11 NDo=     1
 LinEq1:  Iter=  7 NonCon=     0 RMS=1.25D-12 Max=6.92D-12 NDo=     1
 Linear equations converged to 9.160D-12 9.160D-11 after     7 iterations.
 SCF Done:  E(UB3LYP) =  -100.760271845     a.u. after   22 cycles
            Convg  =    0.9398D-08                   107 Fock formations.
              S**2 =  1.7106                  -V/T =  2.0015
 <Sx>= 0.0000 <Sy>= 0.0000 <Sz>= 0.5000 <S**2>= 1.7106 S= 0.9002
 <L.S>=  0.00000000000    
 Annihilation of the first spin contaminant:
 S**2 before annihilation     1.7106,   after     0.7528
 DoSCS=F DFT=T ScalE2(SS,OS)=  1.000000  1.000000
 Range of M.O.s used for correlation:     1    30
 NBasis=    30 NAE=     6 NBE=     5 NFC=     0 NFV=     0
 NROrb=     30 NOA=     6 NOB=     5 NVA=    24 NVB=    25

 **** Warning!!: The smallest beta delta epsilon is  0.83467351D-01

 Symmetrizing basis deriv contribution to polar:
 IMax=3 JMax=2 DiffMx= 0.00D+00
 G2DrvN: will do     4 centers at a time, making    1 passes.
 Calling FoFCou, ICntrl=  3107 FMM=F I1Cent=   0 AccDes= 0.00D+00.
 End of G2Drv F.D. properties file   721 does not exist.
 End of G2Drv F.D. properties file   722 does not exist.
 End of G2Drv F.D. properties file   788 does not exist.
          IDoAtm=111
          Differentiating once with respect to electric field.
                with respect to dipole field.
          Differentiating once with respect to nuclear coordinates.
 Keep R1 and R2 ints in memory in canonical form, NReq=7101526.
          There are    12 degrees of freedom in the 1st order CPHF.  IDoFFX=6 NUNeed=     3.
      9 vectors produced by pass  0 Test12= 2.24D-15 8.33D-09 XBig12= 1.53D+02 1.22D+01.
 AX will form     9 AO Fock derivatives at one time.
      9 vectors produced by pass  1 Test12= 2.24D-15 8.33D-09 XBig12= 2.63D+00 6.04D-01.
      9 vectors produced by pass  2 Test12= 2.24D-15 8.33D-09 XBig12= 3.57D-01 4.51D-01.
      7 vectors produced by pass  3 Test12= 2.24D-15 8.33D-09 XBig12= 1.28D-03 1.62D-02.
      6 vectors produced by pass  4 Test12= 2.24D-15 8.33D-09 XBig12= 9.97D-06 1.24D-03.
      3 vectors produced by pass  5 Test12= 2.24D-15 8.33D-09 XBig12= 3.37D-08 7.14D-05.
      1 vectors produced by pass  6 Test12= 2.24D-15 8.33D-09 XBig12= 6.19D-11 3.02D-06.
      1 vectors produced by pass  7 Test12= 2.24D-15 8.33D-09 XBig12= 1.95D-13 1.77D-07.
 InvSVY:  IOpt=1 It=  1 EMax= 1.27D-15
 Solved reduced A of dimension    45 with     9 vectors.
 Isotropic polarizability for W=    0.000000       11.60 Bohr**3.
 End of Minotr F.D. properties file   721 does not exist.
 End of Minotr F.D. properties file   722 does not exist.
 End of Minotr F.D. properties file   788 does not exist.

 **********************************************************************

            Population analysis using the SCF Density.

 **********************************************************************

 Alpha  occ. eigenvalues --  -24.74577  -1.20601  -0.53697  -0.45087  -0.45087
 Alpha  occ. eigenvalues --   -0.32478
 Alpha virt. eigenvalues --   -0.07781   0.24170   0.36283   0.88854   0.91978
 Alpha virt. eigenvalues --    0.91978   1.03110   1.25029   1.25029   1.25217
 Alpha virt. eigenvalues --    1.44326   1.44326   1.44545   2.14961   2.40585
 Alpha virt. eigenvalues --    3.66609   3.68725   3.68725   3.75579   3.75579
 Alpha virt. eigenvalues --    5.88340   5.95007   5.95007  66.48476
  Beta  occ. eigenvalues --  -24.71516  -1.11819  -0.42021  -0.42021  -0.33397
  Beta virt. eigenvalues --   -0.25051  -0.06622   0.24015   0.37815   0.93451
  Beta virt. eigenvalues --    0.93451   0.97719   1.06952   1.23967   1.23967
  Beta virt. eigenvalues --    1.24223   1.45739   1.45992   1.45992   2.15277
  Beta virt. eigenvalues --    2.41342   3.77163   3.77163   3.78249   3.78249
  Beta virt. eigenvalues --    3.80196   5.97601   5.97601   6.02050  66.51521
          Condensed to atoms (all electrons):
               1          2          3
     1  H    0.967122   0.001767   0.004345
     2  H    0.001767   0.997834  -0.000000
     3  F    0.004345  -0.000000   9.022821
          Atomic-Atomic Spin Densities.
               1          2          3
     1  H   -0.965744   0.000256  -0.002369
     2  H    0.000256   0.997392  -0.000000
     3  F   -0.002369  -0.000000   0.972579
 Mulliken charges and spin densities:
               1          2
     1  H    0.026766  -0.967857
     2  H    0.000399   0.997648
     3  F   -0.027165   0.970210
 Sum of Mulliken charges =  -0.00000   1.00000
 Mulliken charges and spin densities with hydrogens summed into heavy atoms:
               1          2
     3  F   -0.000000   1.000000
 APT charges:
               1
     1  H   -0.038032
     2  H   -0.000140
     3  F    0.038173
 Sum of APT charges =  -0.00000
 APT charges with hydrogens summed into heavy atoms:
               1
     3  F   -0.000000
 Electronic spatial extent (au):  <R**2>=            378.6808
 Charge=             -0.0000 electrons
 Dipole moment (field-independent basis, Debye):
    X=             -0.4463    Y=             -0.0000    Z=             -0.0000  Tot=              0.4463
 Quadrupole moment (field-independent basis, Debye-Ang):
   XX=             -7.9987   YY=             -7.6158   ZZ=             -7.6158
   XY=             -0.0000   XZ=             -0.0000   YZ=             -0.0000
 Traceless Quadrupole moment (field-independent basis, Debye-Ang):
   XX=             -0.2553   YY=              0.1276   ZZ=              0.1276
   XY=             -0.0000   XZ=             -0.0000   YZ=             -0.0000
 Octapole moment (field-independent basis, Debye-Ang**2):
  XXX=            -27.9300  YYY=             -0.0000  ZZZ=             -0.0000  XYY=            -10.5326
  XXY=             -0.0000  XXZ=             -0.0000  XZZ=            -10.5326  YZZ=             -0.0000
  YYZ=             -0.0000  XYZ=             -0.0000
 Hexadecapole moment (field-independent basis, Debye-Ang**3):
 XXXX=           -355.3075 YYYY=             -6.3209 ZZZZ=             -6.3209 XXXY=             -0.0000
 XXXZ=             -0.0000 YYYX=             -0.0000 YYYZ=             -0.0000 ZZZX=             -0.0000
 ZZZY=             -0.0000 XXYY=            -66.8380 XXZZ=            -66.8380 YYZZ=             -2.1070
 XXYZ=             -0.0000 YYXZ=             -0.0000 ZZXY=             -0.0000
 N-N= 2.386924874778D+00 E-N=-2.457929758707D+02  KE= 1.006087820090D+02
  Exact polarizability:      30.742      -0.000       2.028      -0.000      -0.000       2.028
 Approx polarizability:      28.803      -0.000       1.928      -0.000       0.000       1.928
                          Isotropic Fermi Contact Couplings
        Atom                 a.u.       MegaHertz       Gauss      10(-4) cm-1
     1  H(1)              -0.28901   -1291.84629    -460.96288    -430.91354
     2  H(1)               0.29633    1324.56881     472.63909     441.82860
     3  F(19)              0.02868     120.65610      43.05310      40.24654
 --------------------------------------------------------
       Center         ----  Spin Dipole Couplings  ----
                      3XX-RR        3YY-RR        3ZZ-RR
 --------------------------------------------------------
     1   Atom        0.017160     -0.008580     -0.008580
     2   Atom       -0.005901      0.002950      0.002950
     3   Atom        6.112686     -3.056343     -3.056343
 --------------------------------------------------------
                        XY            XZ            YZ
 --------------------------------------------------------
     1   Atom        0.000000      0.000000     -0.000000
     2   Atom        0.000000      0.000000     -0.000000
     3   Atom       -0.000004     -0.000000     -0.000000
 --------------------------------------------------------


 ---------------------------------------------------------------------------------
              Anisotropic Spin Dipole Couplings in Principal Axis System
 ---------------------------------------------------------------------------------

       Atom             a.u.   MegaHertz   Gauss  10(-4) cm-1        Axes

              Baa    -0.0086    -4.578    -1.634    -1.527 -0.0000  0.9961  0.0882
     1 H(1)   Bbb    -0.0086    -4.578    -1.634    -1.527 -0.0000 -0.0882  0.9961
              Bcc     0.0172     9.156     3.267     3.054  1.0000  0.0000  0.0000
 
              Baa    -0.0059    -3.148    -1.123    -1.050  1.0000 -0.0000 -0.0000
     2 H(1)   Bbb     0.0030     1.574     0.562     0.525  0.0000  0.9957  0.0931
              Bcc     0.0030     1.574     0.562     0.525 -0.0000 -0.0931  0.9957
 
              Baa    -3.0563 -1534.974  -547.717  -512.012  0.0000  0.9957  0.0925
     3 F(19)  Bbb    -3.0563 -1534.974  -547.717  -512.012  0.0000 -0.0925  0.9957
              Bcc     6.1127  3069.948  1095.434  1024.024  1.0000 -0.0000 -0.0000
 

 ---------------------------------------------------------------------------------

 Calling FoFJK, ICntrl=    100127 FMM=F ISym2X=0 I1Cent= 0 IOpClX= 1 NMat=1 NMatS=1 NMatT=0.
 Full mass-weighted force constant matrix:
 Low frequencies --- -330.7678 -120.7630    0.0014    0.0021    0.0022   43.0093
 Low frequencies ---   43.0093  118.4745  118.4746
 ******    2 imaginary frequencies (negative Signs) ****** 
 Diagonal vibrational polarizability:
        9.1307400       1.3522262       1.3522264
 Harmonic frequencies (cm**-1), IR intensities (KM/Mole), Raman scattering
 activities (A**4/AMU), depolarization ratios for plane and unpolarized
 incident light, reduced masses (AMU), force constants (mDyne/A),
 and normal coordinates:
                      1                      2                      3
                      A                      A                      A
 Frequencies --   -330.7678              -120.7630               114.5808
 Red. masses --      1.0400                 1.0720                 1.0191
 Frc consts  --      0.0670                 0.0092                 0.0079
 IR Inten    --     28.7322                 1.1182                 0.6597
  Atom  AN      X      Y      Z        X      Y      Z        X      Y      Z
     1   1     0.98  -0.00  -0.00     0.14  -0.00  -0.00     0.00  -0.10   0.90
     2   1    -0.18   0.00   0.00     0.99   0.00   0.00    -0.00   0.05  -0.43
     3   9    -0.04   0.00   0.00    -0.06   0.00   0.00    -0.00   0.00  -0.02
                      4
                      A
 Frequencies --    114.5808
 Red. masses --      1.0191
 Frc consts  --      0.0079
 IR Inten    --      0.6597
  Atom  AN      X      Y      Z
     1   1     0.00   0.90   0.10
     2   1     0.00  -0.43  -0.05
     3   9    -0.00  -0.02  -0.00

 -------------------
 - Thermochemistry -
 -------------------
 Temperature   298.150 Kelvin.  Pressure   1.00000 Atm.
 Atom     1 has atomic number  1 and mass   1.00783
 Atom     2 has atomic number  1 and mass   1.00783
 Atom     3 has atomic number  9 and mass  18.99840
 Molecular mass:    21.01405 amu.
 Principal axes and moments of inertia in atomic units:
                           1         2         3
     Eigenvalues --     0.00000 176.07553 176.07553
           X            1.00000  -0.00000   0.00000
           Y            0.00000   1.00000   0.00000
           Z            0.00000   0.00000   1.00000
 This molecule is a prolate symmetric top.
 Rotational symmetry number  1.
 Rotational temperature (Kelvin)      0.49191
 Rotational constant (GHZ):          10.249813
    2 imaginary frequencies ignored.
 Zero-point vibrational energy       1370.7 (Joules/Mol)
                                    0.32760 (Kcal/Mol)
 Warning -- explicit consideration of   2 degrees of freedom as
           vibrations may cause significant error
 Vibrational temperatures:    164.86   164.86
          (Kelvin)
 
 Zero-point correction=                           0.000522 (Hartree/Particle)
 Thermal correction to Energy=                    0.004297
 Thermal correction to Enthalpy=                  0.005241
 Thermal correction to Gibbs Free Energy=        -0.022100
 Sum of electronic and zero-point Energies=           -100.759750
 Sum of electronic and thermal Energies=              -100.755975
 Sum of electronic and thermal Enthalpies=            -100.755031
 Sum of electronic and thermal Free Energies=         -100.782372
 
                     E (Thermal)             CV                S
                      KCal/Mol        Cal/Mol-Kelvin    Cal/Mol-Kelvin
 Total                    2.696              8.843             57.544
 Electronic               0.000              0.000              1.377
 Translational            0.889              2.981             35.068
 Rotational               0.592              1.987             14.719
 Vibrational              1.215              3.875              6.380
 Vibration     1          0.608              1.937              3.190
 Vibration     2          0.608              1.937              3.190
                       Q            Log10(Q)             Ln(Q)
 Total Bot       0.146358D+11         10.165417         23.406738
 Total V=0       0.254420D+11         10.405552         23.959668
 Vib (Bot)       0.318876D+01          0.503622          1.159634
 Vib (Bot)    1  0.178571D+01          0.251811          0.579817
 Vib (Bot)    2  0.178571D+01          0.251811          0.579817
 Vib (V=0)       0.554315D+01          0.743757          1.712564
 Vib (V=0)    1  0.235439D+01          0.371879          0.856282
 Vib (V=0)    2  0.235439D+01          0.371878          0.856282
 Electronic      0.200000D+01          0.301030          0.693147
 Translational   0.378633D+07          6.578219         15.146908
 Rotational      0.606103D+03          2.782546          6.407049
 -------------------------------------------------------------------
 Center     Atomic                   Forces (Hartrees/Bohr)
 Number     Number              X              Y              Z
 -------------------------------------------------------------------
      1        1           0.001961547    0.000000000    0.000000000
      2        1           0.000529267    0.000000000    0.000000000
      3        9          -0.002490814   -0.000000000   -0.000000000
 -------------------------------------------------------------------
 Cartesian Forces:  Max     0.002490814 RMS     0.001071445

 GradGradGradGradGradGradGradGradGradGradGradGradGradGradGradGradGradGrad
 Berny optimization.
 Search for a local minimum.
 Step number   1 out of a maximum of    2
 All quantities printed in internal units (Hartrees-Bohrs-Radians)
 Second derivative matrix not updated -- analytic derivatives used.
 The second derivative matrix:
                          X1        Y1        Z1        X2        Y2
           X1          -0.00391
           Y1           0.00000   0.00050
           Z1           0.00000   0.00000   0.00050
           X2           0.00066   0.00000  -0.00000  -0.00065
           Y2           0.00000  -0.00008   0.00000  -0.00000   0.00008
           Z2           0.00000   0.00000  -0.00008  -0.00000   0.00000
           X3           0.00325  -0.00000  -0.00000  -0.00001  -0.00000
           Y3          -0.00000  -0.00042  -0.00000  -0.00000   0.00000
           Z3          -0.00000  -0.00000  -0.00042   0.00000  -0.00000
                          Z2        X3        Y3        Z3
           Z2           0.00008
           X3          -0.00000  -0.00323
           Y3          -0.00000   0.00000   0.00042
           Z3           0.00000   0.00000   0.00000   0.00042
 ITU=  0
     Eigenvalues ---   -0.00579  -0.00082   0.00060   0.00060
 Eigenvalue     1 is  -5.79D-03 should be greater than     0.000000 Eigenvector:
                          X1        X3        X2        Y1        Y2
   1                    0.94611  -0.32302   0.02296  -0.00000   0.00000
                          Y3        Z1        Z2        Z3
   1                    0.00000  -0.00000   0.00000   0.00000
 Eigenvalue     2 is  -8.23D-04 should be greater than     0.000000 Eigenvector:
                          X2        X3        X1        Y1        Y2
   1                    0.95319  -0.27834  -0.11816  -0.00000   0.00000
                          Y3        Z1        Z2        Z3
   1                    0.00000  -0.00000   0.00000   0.00000
 Quadratic step=1.261D+00 exceeds max=3.000D-01 adjusted using Lamda=-4.944D-03.
 Angle between NR and scaled steps=  34.60 degrees.
 Angle between quadratic step and forces=  30.95 degrees.
 Linear search not attempted -- first point.
 B after Tr=    -0.084685   -0.000000    0.000000
         Rot=    0.994436    0.105346    0.000000    0.000000 Ang=  12.09 deg.
 Variable       Old X    -DE/DX   Delta X   Delta X   Delta X     New X
                                 (Linear)    (Quad)   (Total)
    X1        0.00000   0.00196   0.00000   0.21572   0.13104   0.13104
    Y1        0.00000   0.00000   0.00000   0.00000   0.00000   0.00000
    Z1        0.00000   0.00000   0.00000   0.00000  -0.00000  -0.00000
    X2       -6.51956   0.00053   0.00000   0.16536   0.08067  -6.43888
    Y2        0.00000   0.00000   0.00000  -0.00000  -0.00000  -0.00000
    Z2        0.00000   0.00000   0.00000  -0.00000   0.00000   0.00000
    X3        5.95264  -0.00249   0.00000  -0.12703  -0.21171   5.74093
    Y3        0.00000  -0.00000   0.00000  -0.00000  -0.00000  -0.00000
    Z3        0.00000  -0.00000   0.00000  -0.00000   0.00000   0.00000
         Item               Value     Threshold  Converged?
 Maximum Force            0.002491     0.000450     NO 
 RMS     Force            0.001071     0.000300     NO 
 Maximum Displacement     0.211712     0.001800     NO 
 RMS     Displacement     0.087242     0.001200     NO 
 Predicted change in Energy=-1.018068D-03
 GradGradGradGradGradGradGradGradGradGradGradGradGradGradGradGradGradGrad


 ----------------------------------------------------------------------

 Electric dipole moment (input orientation):
 (Debye = 10**-18 statcoulomb cm , SI units = C m)
                  (au)            (Debye)         (10**-30 SI)
   Tot        0.175590D+00      0.446305D+00      0.148871D+01
   x         -0.175590D+00     -0.446305D+00     -0.148871D+01
   y          0.000000D+00      0.000000D+00      0.000000D+00
   z          0.000000D+00      0.000000D+00      0.000000D+00

 Dipole polarizability, Alpha (input orientation).
 (esu units = cm**3 , SI units = C**2 m**2 J**-1)
 Alpha(0;0):
               (au)            (10**-24 esu)      (10**-40 SI)
   iso        0.115992D+02      0.171883D+01      0.191245D+01
   aniso      0.287147D+02      0.425508D+01      0.473441D+01
   xx         0.307423D+02      0.455554D+01      0.506873D+01
   yx         0.000000D+00      0.000000D+00      0.000000D+00
   yy         0.202766D+01      0.300468D+00      0.334316D+00
   zx         0.000000D+00      0.000000D+00      0.000000D+00
   zy         0.000000D+00      0.000000D+00      0.000000D+00
   zz         0.202766D+01      0.300468D+00      0.334316D+00

 ----------------------------------------------------------------------

 Dipole orientation:
     1          0.00000000          0.00000000         -0.00000000
     1          0.00000000          0.00000001          6.51955513
     9         -0.00000000         -0.00000001         -5.95263729

 Electric dipole moment (dipole orientation):
 (Debye = 10**-18 statcoulomb cm , SI units = C m)
                  (au)            (Debye)         (10**-30 SI)
   Tot        0.175590D+00      0.446305D+00      0.148871D+01
   x          0.000000D+00      0.000000D+00      0.000000D+00
   y          0.000000D+00      0.000000D+00      0.000000D+00
   z          0.175590D+00      0.446305D+00      0.148871D+01

 Dipole polarizability, Alpha (dipole orientation).
 (esu units = cm**3 , SI units = C**2 m**2 J**-1)
 Alpha(0;0):
               (au)            (10**-24 esu)      (10**-40 SI)
   iso        0.115992D+02      0.171883D+01      0.191245D+01
   aniso      0.287147D+02      0.425508D+01      0.473441D+01
   xx         0.202766D+01      0.300468D+00      0.334316D+00
   yx         0.000000D+00      0.000000D+00      0.000000D+00
   yy         0.202766D+01      0.300468D+00      0.334316D+00
   zx         0.000000D+00      0.000000D+00      0.000000D+00
   zy         0.000000D+00      0.000000D+00      0.000000D+00
   zz         0.307423D+02      0.455554D+01      0.506873D+01

 ----------------------------------------------------------------------
 Unable to Open any file for archive entry.
 1\1\GINC-DESKTOP-B3RIHJD\Freq\UB3LYP\6-311G(d,p)\F1H2(2)\GARYX\22-Aug-
 2025\0\\# sp b3lyp/6-311g** Force nosymm scf=(qc)\\Title Card Required
 \\0,2\H,0.,0.,0.\H,-3.45,0.,0.\F,3.15,0.,0.\\Version=ES64L-G16RevC.01\
 HF=-100.7602718\S2=1.710565\S2-1=0.\S2A=0.752767\RMSD=5.730e-10\RMSF=1
 .071e-03\Thermal=0.0042967\ETot=-100.7559751\HTot=-100.755031\GTot=-10
 0.7823721\Dipole=-0.1755897,0.,0.\DipoleDeriv=-0.1711165,0.,0.,0.,0.02
 85097,0.,0.,0.,0.0285097,-0.0012811,0.,0.,0.,0.0004299,0.,0.,0.,0.0004
 299,0.1723976,0.,0.,0.,-0.0289396,0.,0.,0.,-0.0289396\Polar=30.7423408
 ,-0.0000002,2.0276615,0.,0.,2.0276615\Quadrupole=-0.1897896,0.0948948,
 0.0948948,-0.0000003,0.,0.\PG=C*V [C*(H1H1F1)]\NImag=2\\-0.00390850,0.
 ,0.00050250,0.,0.,0.00050250,0.00066181,0.,0.,-0.00064893,0.,-0.000081
 07,0.,0.,0.00008103,0.,0.,-0.00008107,0.,0.,0.00008103,0.00324669,0.,0
 .,-0.00001288,0.,0.,-0.00323381,0.,-0.00042143,0.,0.,0.00000004,0.,0.,
 0.00042139,0.,0.,-0.00042143,0.,0.,0.00000004,0.,0.,0.00042139\\-0.001
 96155,0.,0.,-0.00052927,0.,0.,0.00249081,0.,0.\\\@
 The archive entry for this job was punched.


 Sorry, no quote for you today!
 Job cpu time:       0 days  0 hours  0 minutes 23.6 seconds.
 Elapsed time:       0 days  0 hours  0 minutes  3.3 seconds.
 File lengths (MBytes):  RWF=      6 Int=      0 D2E=      0 Chk=      1 Scr=      1
 Normal termination of Gaussian 16 at Fri Aug 22 20:11:43 2025.
