 Entering Gaussian System, Link 0=g16
 Initial command:
 /home/garyx/gaussian/g16/l1.exe "/tmp/gaussian_scratch/Gau-972099.inp" -scrdir="/tmp/gaussian_scratch/"
 Entering Link 1 = /home/garyx/gaussian/g16/l1.exe PID=    972101.
  
 Copyright (c) 1988-2019, Gaussian, Inc.  All Rights Reserved.
  
 This is part of the Gaussian(R) 16 program.  It is based on
 the Gaussian(R) 09 system (copyright 2009, Gaussian, Inc.),
 the Gaussian(R) 03 system (copyright 2003, Gaussian, Inc.),
 the Gaussian(R) 98 system (copyright 1998, Gaussian, Inc.),
 the Gaussian(R) 94 system (copyright 1995, Gaussian, Inc.),
 the Gaussian 92(TM) system (copyright 1992, Gaussian, Inc.),
 the Gaussian 90(TM) system (copyright 1990, Gaussian, Inc.),
 the Gaussian 88(TM) system (copyright 1988, Gaussian, Inc.),
 the Gaussian 86(TM) system (copyright 1986, Carnegie Mellon
 University), and the Gaussian 82(TM) system (copyright 1983,
 Carnegie Mellon University). Gaussian is a federally registered
 trademark of Gaussian, Inc.
  
 This software contains proprietary and confidential information,
 including trade secrets, belonging to Gaussian, Inc.
  
 This software is provided under written license and may be
 used, copied, transmitted, or stored only in accord with that
 written license.
  
 The following legend is applicable only to US Government
 contracts under FAR:
  
                    RESTRICTED RIGHTS LEGEND
  
 Use, reproduction and disclosure by the US Government is
 subject to restrictions as set forth in subparagraphs (a)
 and (c) of the Commercial Computer Software - Restricted
 Rights clause in FAR 52.227-19.
  
 Gaussian, Inc.
 340 Quinnipiac St., Bldg. 40, Wallingford CT 06492
  
  
 ---------------------------------------------------------------
 Warning -- This program may not be used in any manner that
 competes with the business of Gaussian, Inc. or will provide
 assistance to any competitor of Gaussian, Inc.  The licensee
 of this program is prohibited from giving any competitor of
 Gaussian, Inc. access to this program.  By using this program,
 the user acknowledges that Gaussian, Inc. is engaged in the
 business of creating and licensing software in the field of
 computational chemistry and represents and warrants to the
 licensee that it is not a competitor of Gaussian, Inc. and that
 it will not use this program in any manner prohibited above.
 ---------------------------------------------------------------
  

 Cite this work as:
 Gaussian 16, Revision C.01,
 M. J. Frisch, G. W. Trucks, H. B. Schlegel, G. E. Scuseria, 
 M. A. Robb, J. R. Cheeseman, G. Scalmani, V. Barone, 
 G. A. Petersson, H. Nakatsuji, X. Li, M. Caricato, A. V. Marenich, 
 J. Bloino, B. G. Janesko, R. Gomperts, B. Mennucci, H. P. Hratchian, 
 J. V. Ortiz, A. F. Izmaylov, J. L. Sonnenberg, D. Williams-Young, 
 F. Ding, F. Lipparini, F. Egidi, J. Goings, B. Peng, A. Petrone, 
 T. Henderson, D. Ranasinghe, V. G. Zakrzewski, J. Gao, N. Rega, 
 G. Zheng, W. Liang, M. Hada, M. Ehara, K. Toyota, R. Fukuda, 
 J. Hasegawa, M. Ishida, T. Nakajima, Y. Honda, O. Kitao, H. Nakai, 
 T. Vreven, K. Throssell, J. A. Montgomery, Jr., J. E. Peralta, 
 F. Ogliaro, M. J. Bearpark, J. J. Heyd, E. N. Brothers, K. N. Kudin, 
 V. N. Staroverov, T. A. Keith, R. Kobayashi, J. Normand, 
 K. Raghavachari, A. P. Rendell, J. C. Burant, S. S. Iyengar, 
 J. Tomasi, M. Cossi, J. M. Millam, M. Klene, C. Adamo, R. Cammi, 
 J. W. Ochterski, R. L. Martin, K. Morokuma, O. Farkas, 
 J. B. Foresman, and D. J. Fox, Gaussian, Inc., Wallingford CT, 2019.
 
 ******************************************
 Gaussian 16:  ES64L-G16RevC.01  3-Jul-2019
                22-Aug-2025 
 ******************************************
 %mem=10GB
 %nprocs=8
 Will use up to    8 processors via shared memory.
 -----------------------------------------
 # sp b3lyp/6-311g** Force nosymm scf=(qc)
 -----------------------------------------
 1/10=4,30=1,38=1/1,3;
 2/12=2,15=1,17=6,18=5,40=1/2;
 3/5=4,6=6,7=101,11=2,25=1,30=1,71=2,74=-5,140=1/1,2,3;
 4//1;
 5/5=2,8=3,38=5,98=1/8;
 8/6=4,10=90,11=11/1;
 11/6=1,8=1,9=11,15=111,16=1,31=1/1,2,10;
 10/6=1,31=1/2;
 6/7=2,8=2,9=2,10=2,28=1/1;
 7/8=1,10=1,25=1,30=1/1,2,3,16;
 1/10=4,30=1/3;
 99//99;
 -------------------
 Title Card Required
 -------------------
 Symbolic Z-matrix:
 Charge =  0 Multiplicity = 2
 H                     0.        0.        0. 
 H                    -2.4       0.        0. 
 F                     3.5       0.        0. 
 

 GradGradGradGradGradGradGradGradGradGradGradGradGradGradGradGradGradGrad
 Berny optimization.
 Initialization pass.
 Trust Radius=3.00D-01 FncErr=1.00D-07 GrdErr=1.00D-07 EigMax=2.50D+02 EigMin=1.00D-04
 Number of steps in this run=      2 maximum allowed number of steps=      2.
 GradGradGradGradGradGradGradGradGradGradGradGradGradGradGradGradGradGrad

                          Input orientation:                          
 ---------------------------------------------------------------------
 Center     Atomic      Atomic             Coordinates (Angstroms)
 Number     Number       Type             X           Y           Z
 ---------------------------------------------------------------------
      1          1           0        0.000000    0.000000    0.000000
      2          1           0       -2.400000    0.000000    0.000000
      3          9           0        3.500000    0.000000    0.000000
 ---------------------------------------------------------------------
                    Distance matrix (angstroms):
                    1          2          3
     1  H    0.000000
     2  H    2.400000   0.000000
     3  F    3.500000   5.900000   0.000000
 Symmetry turned off by external request.
 Stoichiometry    FH2(2)
 Framework group  C*V[C*(HHF)]
 Deg. of freedom     2
 Full point group                 C*V     NOp   4
 Rotational constants (GHZ):           0.0000000          11.7101416          11.7101416
 Standard basis: 6-311G(d,p) (5D, 7F)
    30 basis functions,    48 primitive gaussians,    31 cartesian basis functions
     6 alpha electrons        5 beta electrons
       nuclear repulsion energy         2.3884513783 Hartrees.
 NAtoms=    3 NActive=    3 NUniq=    3 SFac= 1.00D+00 NAtFMM=   60 NAOKFM=F Big=F
 Integral buffers will be    131072 words long.
 Raffenetti 2 integral format.
 Two-electron integral symmetry is turned off.
 One-electron integrals computed using PRISM.
 NBasis=    30 RedAO= T EigKep=  8.90D-02  NBF=    30
 NBsUse=    30 1.00D-06 EigRej= -1.00D+00 NBFU=    30
 ExpMin= 1.03D-01 ExpMax= 1.14D+04 ExpMxC= 1.72D+03 IAcc=3 IRadAn=         5 AccDes= 0.00D+00
 Harris functional with IExCor=  402 and IRadAn=       5 diagonalized for initial guess.
 HarFok:  IExCor=  402 AccDes= 0.00D+00 IRadAn=         5 IDoV= 1 UseB2=F ITyADJ=14
 ICtDFT=  3500011 ScaDFX=  1.000000  1.000000  1.000000  1.000000
 FoFCou: FMM=F IPFlag=           0 FMFlag=      100000 FMFlg1=           0
         NFxFlg=           0 DoJE=T BraDBF=F KetDBF=T FulRan=T
         wScrn=  0.000000 ICntrl=       500 IOpCl=  0 I1Cent=   200000004 NGrid=           0
         NMat0=    1 NMatS0=      1 NMatT0=    0 NMatD0=    1 NMtDS0=    0 NMtDT0=    0
 Symmetry not used in FoFCou.
 Initial guess <Sx>= 0.0000 <Sy>= 0.0000 <Sz>= 0.5000 <S**2>= 0.7500 S= 0.5000
 Keep R1 and R2 ints in memory in canonical form, NReq=7127049.
 Gradient too large for Newton-Raphson -- use scaled steepest descent instead.
  Beta Gap=    -0.575 HL deriv= 3.61D-16 Rot set to   3.54D-01
     Minimum is close to point  3 DX=  4.09D-02 DF= -1.19D-03 DXR=  9.27D-02 DFR=  9.20D-03 which will be used.
 Gradient too large for Newton-Raphson -- use scaled steepest descent instead.
     Accept linear search using points  4 and  5.
 Gradient too large for Newton-Raphson -- use scaled steepest descent instead.
 Gradient too large for Newton-Raphson -- use scaled steepest descent instead.
 Gradient too large for Newton-Raphson -- use scaled steepest descent instead.
     Accept linear search using points  3 and  4.
 Gradient too large for Newton-Raphson -- use scaled steepest descent instead.
     Minimum is close to point  3 DX=  6.88D-03 DF= -7.19D-06 DXR=  1.36D-02 DFR=  1.84D-04 which will be used.
 Gradient too large for Newton-Raphson -- use scaled steepest descent instead.
 Gradient too large for Newton-Raphson -- use scaled steepest descent instead.
 Gradient too large for Newton-Raphson -- use scaled steepest descent instead.
     Accept linear search using points  1 and  2.
 Gradient too large for Newton-Raphson -- use scaled steepest descent instead.
     Accept linear search using points  1 and  2.
 Gradient too large for Newton-Raphson -- use scaled steepest descent instead.
     Accept linear search using points  1 and  2.
     Minimum is close to point  2 DX= -5.41D-02 DF= -2.12D-05 DXR=  5.71D-02 DFR=  3.32D-03 which will be used.
 Gradient too large for Newton-Raphson -- use scaled steepest descent instead.
     Accept linear search using points  1 and  2.
 Gradient too large for Newton-Raphson -- use scaled steepest descent instead.
 Gradient too large for Newton-Raphson -- use scaled steepest descent instead.
     Accept linear search using points  1 and  2.
 LinEq1:  Iter=  0 NonCon=     1 RMS=1.44D-03 Max=2.32D-02 NDo=     1
 AX will form     1 AO Fock derivatives at one time.
 LinEq1:  Iter=  1 NonCon=     1 RMS=1.14D-04 Max=6.83D-04 NDo=     1
 LinEq1:  Iter=  2 NonCon=     1 RMS=6.72D-05 Max=7.06D-04 NDo=     1
 LinEq1:  Iter=  3 NonCon=     1 RMS=3.77D-05 Max=4.51D-04 NDo=     1
 LinEq1:  Iter=  4 NonCon=     1 RMS=5.44D-06 Max=5.59D-05 NDo=     1
 LinEq1:  Iter=  5 NonCon=     1 RMS=8.75D-07 Max=7.85D-06 NDo=     1
 LinEq1:  Iter=  6 NonCon=     1 RMS=8.08D-08 Max=7.34D-07 NDo=     1
 LinEq1:  Iter=  7 NonCon=     1 RMS=2.55D-08 Max=2.33D-07 NDo=     1
 LinEq1:  Iter=  8 NonCon=     1 RMS=4.82D-09 Max=4.49D-08 NDo=     1
 LinEq1:  Iter=  9 NonCon=     0 RMS=5.51D-10 Max=7.82D-09 NDo=     1
 Linear equations converged to 1.640D-09 1.640D-08 after     9 iterations.
 LinEq1:  Iter=  0 NonCon=     1 RMS=1.12D-03 Max=1.80D-02 NDo=     1
 LinEq1:  Iter=  1 NonCon=     1 RMS=8.66D-05 Max=5.49D-04 NDo=     1
 LinEq1:  Iter=  2 NonCon=     1 RMS=4.33D-05 Max=4.09D-04 NDo=     1
 LinEq1:  Iter=  3 NonCon=     1 RMS=2.26D-05 Max=2.90D-04 NDo=     1
 LinEq1:  Iter=  4 NonCon=     1 RMS=4.25D-06 Max=3.88D-05 NDo=     1
 LinEq1:  Iter=  5 NonCon=     1 RMS=7.45D-07 Max=8.00D-06 NDo=     1
 LinEq1:  Iter=  6 NonCon=     1 RMS=8.80D-08 Max=8.42D-07 NDo=     1
 LinEq1:  Iter=  7 NonCon=     1 RMS=1.81D-08 Max=2.11D-07 NDo=     1
 LinEq1:  Iter=  8 NonCon=     1 RMS=3.59D-09 Max=3.83D-08 NDo=     1
 LinEq1:  Iter=  9 NonCon=     0 RMS=5.82D-10 Max=8.64D-09 NDo=     1
 Linear equations converged to 1.640D-09 1.640D-08 after     9 iterations.
 LinEq1:  Iter=  0 NonCon=     1 RMS=6.45D-04 Max=1.04D-02 NDo=     1
 LinEq1:  Iter=  1 NonCon=     1 RMS=4.07D-05 Max=2.98D-04 NDo=     1
 LinEq1:  Iter=  2 NonCon=     1 RMS=1.99D-05 Max=1.77D-04 NDo=     1
 LinEq1:  Iter=  3 NonCon=     1 RMS=4.61D-06 Max=5.07D-05 NDo=     1
 LinEq1:  Iter=  4 NonCon=     1 RMS=2.02D-06 Max=2.30D-05 NDo=     1
 LinEq1:  Iter=  5 NonCon=     1 RMS=5.39D-07 Max=6.63D-06 NDo=     1
 LinEq1:  Iter=  6 NonCon=     1 RMS=7.55D-08 Max=7.47D-07 NDo=     1
 LinEq1:  Iter=  7 NonCon=     1 RMS=7.15D-09 Max=5.59D-08 NDo=     1
 LinEq1:  Iter=  8 NonCon=     1 RMS=1.67D-09 Max=1.58D-08 NDo=     1
 LinEq1:  Iter=  9 NonCon=     0 RMS=2.57D-10 Max=1.49D-09 NDo=     1
 Linear equations converged to 1.640D-09 1.640D-08 after     9 iterations.
     Minimum is close to point  2 DX=  8.40D-02 DF= -1.08D-07 DXR=  7.75D-02 DFR=  6.04D-03 which will be used.
 LinEq1:  Iter=  0 NonCon=     1 RMS=2.27D-05 Max=1.75D-04 NDo=     1
 LinEq1:  Iter=  1 NonCon=     1 RMS=1.45D-05 Max=1.33D-04 NDo=     1
 LinEq1:  Iter=  2 NonCon=     1 RMS=7.51D-06 Max=8.36D-05 NDo=     1
 LinEq1:  Iter=  3 NonCon=     1 RMS=2.84D-06 Max=2.76D-05 NDo=     1
 LinEq1:  Iter=  4 NonCon=     1 RMS=4.95D-07 Max=4.07D-06 NDo=     1
 LinEq1:  Iter=  5 NonCon=     1 RMS=5.28D-08 Max=3.89D-07 NDo=     1
 LinEq1:  Iter=  6 NonCon=     1 RMS=6.93D-09 Max=6.93D-08 NDo=     1
 LinEq1:  Iter=  7 NonCon=     1 RMS=1.66D-09 Max=1.27D-08 NDo=     1
 LinEq1:  Iter=  8 NonCon=     0 RMS=3.02D-10 Max=3.41D-09 NDo=     1
 Linear equations converged to 1.640D-09 1.640D-08 after     8 iterations.
 Incorrect curvature in search direction -- initial direction reversed.
     Minimum is close to point  4 DX=  3.58D-01 DF= -1.23D-07 DXR=  9.53D-02 DFR=  2.35D-02 which will be used.
 LinEq1:  Iter=  0 NonCon=     1 RMS=1.18D-04 Max=1.06D-03 NDo=     1
 LinEq1:  Iter=  1 NonCon=     1 RMS=7.28D-05 Max=7.31D-04 NDo=     1
 LinEq1:  Iter=  2 NonCon=     1 RMS=4.00D-05 Max=4.72D-04 NDo=     1
 LinEq1:  Iter=  3 NonCon=     1 RMS=1.38D-05 Max=1.35D-04 NDo=     1
 LinEq1:  Iter=  4 NonCon=     1 RMS=3.18D-06 Max=2.00D-05 NDo=     1
 LinEq1:  Iter=  5 NonCon=     1 RMS=3.55D-07 Max=2.11D-06 NDo=     1
 LinEq1:  Iter=  6 NonCon=     1 RMS=4.37D-08 Max=4.50D-07 NDo=     1
 LinEq1:  Iter=  7 NonCon=     1 RMS=1.03D-08 Max=7.95D-08 NDo=     1
 LinEq1:  Iter=  8 NonCon=     0 RMS=1.46D-09 Max=1.39D-08 NDo=     1
 Linear equations converged to 1.640D-09 1.640D-08 after     8 iterations.
 Incorrect curvature in search direction -- initial direction reversed.
 LinEq1:  Iter=  0 NonCon=     1 RMS=1.47D-04 Max=1.37D-03 NDo=     1
 LinEq1:  Iter=  1 NonCon=     1 RMS=9.46D-05 Max=1.03D-03 NDo=     1
 LinEq1:  Iter=  2 NonCon=     1 RMS=5.62D-05 Max=7.03D-04 NDo=     1
 LinEq1:  Iter=  3 NonCon=     1 RMS=1.84D-05 Max=1.75D-04 NDo=     1
 LinEq1:  Iter=  4 NonCon=     1 RMS=4.02D-06 Max=2.49D-05 NDo=     1
 LinEq1:  Iter=  5 NonCon=     1 RMS=4.56D-07 Max=2.72D-06 NDo=     1
 LinEq1:  Iter=  6 NonCon=     1 RMS=5.76D-08 Max=6.13D-07 NDo=     1
 LinEq1:  Iter=  7 NonCon=     1 RMS=1.32D-08 Max=9.82D-08 NDo=     1
 LinEq1:  Iter=  8 NonCon=     0 RMS=1.48D-09 Max=9.17D-09 NDo=     1
 Linear equations converged to 1.640D-09 1.640D-08 after     8 iterations.
 Gradient too large for Newton-Raphson -- use scaled steepest descent instead.
     Minimum is close to point  2 DX=  4.42D-02 DF= -8.65D-08 DXR=  4.23D-02 DFR=  1.80D-03 which will be used.
 LinEq1:  Iter=  0 NonCon=     1 RMS=1.03D-04 Max=1.01D-03 NDo=     1
 LinEq1:  Iter=  1 NonCon=     1 RMS=8.12D-05 Max=1.08D-03 NDo=     1
 LinEq1:  Iter=  2 NonCon=     1 RMS=2.87D-05 Max=2.70D-04 NDo=     1
 LinEq1:  Iter=  3 NonCon=     1 RMS=3.85D-06 Max=3.81D-05 NDo=     1
 LinEq1:  Iter=  4 NonCon=     1 RMS=8.24D-07 Max=6.41D-06 NDo=     1
 LinEq1:  Iter=  5 NonCon=     1 RMS=8.91D-08 Max=7.70D-07 NDo=     1
 LinEq1:  Iter=  6 NonCon=     1 RMS=2.22D-08 Max=2.08D-07 NDo=     1
 LinEq1:  Iter=  7 NonCon=     1 RMS=3.17D-09 Max=1.95D-08 NDo=     1
 LinEq1:  Iter=  8 NonCon=     0 RMS=8.91D-10 Max=1.29D-08 NDo=     1
 Linear equations converged to 1.640D-09 1.640D-08 after     8 iterations.
 Incorrect curvature in search direction -- initial direction reversed.
 Gradient too large for Newton-Raphson -- use scaled steepest descent instead.
 LinEq1:  Iter=  0 NonCon=     1 RMS=1.09D-04 Max=1.08D-03 NDo=     1
 LinEq1:  Iter=  1 NonCon=     1 RMS=9.14D-05 Max=1.26D-03 NDo=     1
 LinEq1:  Iter=  2 NonCon=     1 RMS=2.12D-05 Max=2.32D-04 NDo=     1
 LinEq1:  Iter=  3 NonCon=     1 RMS=1.27D-06 Max=8.57D-06 NDo=     1
 LinEq1:  Iter=  4 NonCon=     1 RMS=2.12D-07 Max=1.73D-06 NDo=     1
 LinEq1:  Iter=  5 NonCon=     1 RMS=4.32D-08 Max=3.81D-07 NDo=     1
 LinEq1:  Iter=  6 NonCon=     1 RMS=9.64D-09 Max=9.76D-08 NDo=     1
 LinEq1:  Iter=  7 NonCon=     1 RMS=1.97D-09 Max=1.44D-08 NDo=     1
 LinEq1:  Iter=  8 NonCon=     0 RMS=7.51D-10 Max=1.07D-08 NDo=     1
 Linear equations converged to 1.640D-09 1.640D-08 after     8 iterations.
 LinEq1:  Iter=  0 NonCon=     1 RMS=1.97D-04 Max=1.69D-03 NDo=     1
 LinEq1:  Iter=  1 NonCon=     1 RMS=7.85D-05 Max=8.40D-04 NDo=     1
 LinEq1:  Iter=  2 NonCon=     1 RMS=5.81D-05 Max=8.15D-04 NDo=     1
 LinEq1:  Iter=  3 NonCon=     1 RMS=1.34D-05 Max=1.31D-04 NDo=     1
 LinEq1:  Iter=  4 NonCon=     1 RMS=1.60D-06 Max=1.03D-05 NDo=     1
 LinEq1:  Iter=  5 NonCon=     1 RMS=1.75D-07 Max=1.17D-06 NDo=     1
 LinEq1:  Iter=  6 NonCon=     1 RMS=2.64D-08 Max=2.61D-07 NDo=     1
 LinEq1:  Iter=  7 NonCon=     1 RMS=2.99D-09 Max=1.86D-08 NDo=     1
 LinEq1:  Iter=  8 NonCon=     0 RMS=6.09D-10 Max=6.53D-09 NDo=     1
 Linear equations converged to 1.640D-09 1.640D-08 after     8 iterations.
 LinEq1:  Iter=  0 NonCon=     1 RMS=1.40D-04 Max=1.29D-03 NDo=     1
 LinEq1:  Iter=  1 NonCon=     1 RMS=6.43D-05 Max=5.66D-04 NDo=     1
 LinEq1:  Iter=  2 NonCon=     1 RMS=2.76D-05 Max=2.71D-04 NDo=     1
 LinEq1:  Iter=  3 NonCon=     1 RMS=9.25D-06 Max=8.30D-05 NDo=     1
 LinEq1:  Iter=  4 NonCon=     1 RMS=9.82D-07 Max=8.00D-06 NDo=     1
 LinEq1:  Iter=  5 NonCon=     1 RMS=7.96D-08 Max=7.78D-07 NDo=     1
 LinEq1:  Iter=  6 NonCon=     1 RMS=1.31D-08 Max=1.30D-07 NDo=     1
 LinEq1:  Iter=  7 NonCon=     1 RMS=2.98D-09 Max=1.95D-08 NDo=     1
 LinEq1:  Iter=  8 NonCon=     0 RMS=5.80D-10 Max=5.11D-09 NDo=     1
 Linear equations converged to 1.640D-09 1.640D-08 after     8 iterations.
     Accept linear search using points  2 and  3.
 LinEq1:  Iter=  0 NonCon=     1 RMS=5.33D-05 Max=3.94D-04 NDo=     1
 LinEq1:  Iter=  1 NonCon=     1 RMS=1.36D-05 Max=1.76D-04 NDo=     1
 LinEq1:  Iter=  2 NonCon=     1 RMS=8.48D-06 Max=1.10D-04 NDo=     1
 LinEq1:  Iter=  3 NonCon=     1 RMS=3.56D-06 Max=3.33D-05 NDo=     1
 LinEq1:  Iter=  4 NonCon=     1 RMS=5.25D-07 Max=3.34D-06 NDo=     1
 LinEq1:  Iter=  5 NonCon=     1 RMS=4.10D-08 Max=3.25D-07 NDo=     1
 LinEq1:  Iter=  6 NonCon=     1 RMS=5.79D-09 Max=6.05D-08 NDo=     1
 LinEq1:  Iter=  7 NonCon=     0 RMS=1.50D-09 Max=1.04D-08 NDo=     1
 Linear equations converged to 1.640D-09 1.640D-08 after     7 iterations.
 LinEq1:  Iter=  0 NonCon=     1 RMS=1.28D-05 Max=1.24D-04 NDo=     1
 LinEq1:  Iter=  1 NonCon=     1 RMS=4.50D-06 Max=5.15D-05 NDo=     1
 LinEq1:  Iter=  2 NonCon=     1 RMS=2.19D-06 Max=2.40D-05 NDo=     1
 LinEq1:  Iter=  3 NonCon=     1 RMS=5.83D-07 Max=4.78D-06 NDo=     1
 LinEq1:  Iter=  4 NonCon=     1 RMS=8.81D-08 Max=9.71D-07 NDo=     1
 LinEq1:  Iter=  5 NonCon=     1 RMS=2.43D-08 Max=1.61D-07 NDo=     1
 LinEq1:  Iter=  6 NonCon=     1 RMS=3.00D-09 Max=3.22D-08 NDo=     1
 LinEq1:  Iter=  7 NonCon=     0 RMS=3.50D-10 Max=3.70D-09 NDo=     1
 Linear equations converged to 1.640D-09 1.640D-08 after     7 iterations.
     Accept linear search using points  1 and  2.
     Minimum is close to point  2 DX= -6.78D-02 DF= -9.88D-10 DXR=  7.27D-02 DFR=  5.58D-03 which will be used.
 LinEq1:  Iter=  0 NonCon=     1 RMS=1.33D-06 Max=1.08D-05 NDo=     1
 LinEq1:  Iter=  1 NonCon=     1 RMS=2.44D-07 Max=1.89D-06 NDo=     1
 LinEq1:  Iter=  2 NonCon=     1 RMS=3.04D-07 Max=3.75D-06 NDo=     1
 LinEq1:  Iter=  3 NonCon=     1 RMS=1.18D-07 Max=1.35D-06 NDo=     1
 LinEq1:  Iter=  4 NonCon=     1 RMS=2.01D-08 Max=1.36D-07 NDo=     1
 LinEq1:  Iter=  5 NonCon=     1 RMS=2.81D-09 Max=3.22D-08 NDo=     1
 LinEq1:  Iter=  6 NonCon=     0 RMS=3.46D-10 Max=2.57D-09 NDo=     1
 Linear equations converged to 6.932D-10 6.932D-09 after     6 iterations.
 LinEq1:  Iter=  0 NonCon=     1 RMS=2.10D-07 Max=1.55D-06 NDo=     1
 LinEq1:  Iter=  1 NonCon=     1 RMS=7.38D-08 Max=6.70D-07 NDo=     1
 LinEq1:  Iter=  2 NonCon=     1 RMS=1.86D-08 Max=1.44D-07 NDo=     1
 LinEq1:  Iter=  3 NonCon=     1 RMS=9.60D-09 Max=7.01D-08 NDo=     1
 LinEq1:  Iter=  4 NonCon=     1 RMS=5.72D-09 Max=7.21D-08 NDo=     1
 LinEq1:  Iter=  5 NonCon=     1 RMS=2.11D-09 Max=2.16D-08 NDo=     1
 LinEq1:  Iter=  6 NonCon=     1 RMS=2.84D-10 Max=1.79D-09 NDo=     1
 LinEq1:  Iter=  7 NonCon=     0 RMS=3.02D-11 Max=2.46D-10 NDo=     1
 Linear equations converged to 9.378D-11 9.378D-10 after     7 iterations.
 LinEq1:  Iter=  0 NonCon=     1 RMS=1.39D-08 Max=1.14D-07 NDo=     1
 LinEq1:  Iter=  1 NonCon=     1 RMS=4.08D-09 Max=4.81D-08 NDo=     1
 LinEq1:  Iter=  2 NonCon=     1 RMS=9.13D-10 Max=8.27D-09 NDo=     1
 LinEq1:  Iter=  3 NonCon=     1 RMS=5.25D-10 Max=4.46D-09 NDo=     1
 LinEq1:  Iter=  4 NonCon=     1 RMS=1.24D-10 Max=1.78D-09 NDo=     1
 LinEq1:  Iter=  5 NonCon=     1 RMS=4.42D-11 Max=4.91D-10 NDo=     1
 LinEq1:  Iter=  6 NonCon=     0 RMS=6.86D-12 Max=6.46D-11 NDo=     1
 Linear equations converged to 7.111D-12 7.111D-11 after     6 iterations.
 SCF Done:  E(UB3LYP) =  -100.764197529     a.u. after   32 cycles
            Convg  =    0.2335D-07                   205 Fock formations.
              S**2 =  1.6471                  -V/T =  2.0018
 <Sx>= 0.0000 <Sy>= 0.0000 <Sz>= 0.5000 <S**2>= 1.6471 S= 0.8774
 <L.S>=  0.00000000000    
 Annihilation of the first spin contaminant:
 S**2 before annihilation     1.6471,   after     0.7526
 DoSCS=F DFT=T ScalE2(SS,OS)=  1.000000  1.000000
 Range of M.O.s used for correlation:     1    30
 NBasis=    30 NAE=     6 NBE=     5 NFC=     0 NFV=     0
 NROrb=     30 NOA=     6 NOB=     5 NVA=    24 NVB=    25

 **** Warning!!: The smallest beta delta epsilon is  0.74647818D-01

 Symmetrizing basis deriv contribution to polar:
 IMax=3 JMax=2 DiffMx= 0.00D+00
 G2DrvN: will do     4 centers at a time, making    1 passes.
 Calling FoFCou, ICntrl=  3107 FMM=F I1Cent=   0 AccDes= 0.00D+00.
 End of G2Drv F.D. properties file   721 does not exist.
 End of G2Drv F.D. properties file   722 does not exist.
 End of G2Drv F.D. properties file   788 does not exist.
          IDoAtm=111
          Differentiating once with respect to electric field.
                with respect to dipole field.
          Differentiating once with respect to nuclear coordinates.
 Keep R1 and R2 ints in memory in canonical form, NReq=7101519.
          There are    12 degrees of freedom in the 1st order CPHF.  IDoFFX=6 NUNeed=     3.
      9 vectors produced by pass  0 Test12= 2.24D-15 8.33D-09 XBig12= 1.18D+02 9.79D+00.
 AX will form     9 AO Fock derivatives at one time.
      9 vectors produced by pass  1 Test12= 2.24D-15 8.33D-09 XBig12= 6.81D-01 3.30D-01.
      9 vectors produced by pass  2 Test12= 2.24D-15 8.33D-09 XBig12= 8.34D-02 1.39D-01.
      7 vectors produced by pass  3 Test12= 2.24D-15 8.33D-09 XBig12= 1.96D-04 4.76D-03.
      7 vectors produced by pass  4 Test12= 2.24D-15 8.33D-09 XBig12= 1.99D-06 4.42D-04.
      4 vectors produced by pass  5 Test12= 2.24D-15 8.33D-09 XBig12= 8.84D-09 3.78D-05.
      1 vectors produced by pass  6 Test12= 2.24D-15 8.33D-09 XBig12= 2.47D-11 2.49D-06.
      1 vectors produced by pass  7 Test12= 2.24D-15 8.33D-09 XBig12= 9.78D-15 4.83D-08.
 InvSVY:  IOpt=1 It=  1 EMax= 1.29D-14
 Solved reduced A of dimension    47 with     9 vectors.
 Isotropic polarizability for W=    0.000000       13.11 Bohr**3.
 End of Minotr F.D. properties file   721 does not exist.
 End of Minotr F.D. properties file   722 does not exist.
 End of Minotr F.D. properties file   788 does not exist.

 **********************************************************************

            Population analysis using the SCF Density.

 **********************************************************************

 Alpha  occ. eigenvalues --  -24.75466  -1.21423  -0.54589  -0.45835  -0.45835
 Alpha  occ. eigenvalues --   -0.32746
 Alpha virt. eigenvalues --   -0.09872   0.25769   0.33975   0.87605   0.91427
 Alpha virt. eigenvalues --    0.91427   1.01771   1.24955   1.24955   1.26215
 Alpha virt. eigenvalues --    1.40633   1.40633   1.43142   2.15360   2.36154
 Alpha virt. eigenvalues --    3.65668   3.67852   3.67852   3.74819   3.74820
 Alpha virt. eigenvalues --    5.87012   5.94229   5.94229  66.47502
  Beta  occ. eigenvalues --  -24.72349  -1.12466  -0.42710  -0.42710  -0.33007
  Beta virt. eigenvalues --   -0.25543  -0.09419   0.25595   0.34641   0.92917
  Beta virt. eigenvalues --    0.92917   0.96777   1.05815   1.24640   1.24640
  Beta virt. eigenvalues --    1.25847   1.41326   1.41326   1.43817   2.15915
  Beta virt. eigenvalues --    2.36116   3.76431   3.76431   3.77552   3.77552
  Beta virt. eigenvalues --    3.79555   5.96871   5.96871   6.00994  66.50605
          Condensed to atoms (all electrons):
               1          2          3
     1  H    0.964376   0.026441   0.001682
     2  H    0.026441   0.970679  -0.000000
     3  F    0.001682  -0.000000   9.008699
          Atomic-Atomic Spin Densities.
               1          2          3
     1  H   -0.948662   0.001511  -0.000698
     2  H    0.001511   0.958038  -0.000001
     3  F   -0.000698  -0.000001   0.989000
 Mulliken charges and spin densities:
               1          2
     1  H    0.007501  -0.947849
     2  H    0.002880   0.959548
     3  F   -0.010381   0.988301
 Sum of Mulliken charges =   0.00000   1.00000
 Mulliken charges and spin densities with hydrogens summed into heavy atoms:
               1          2
     3  F    0.000000   1.000000
 APT charges:
               1
     1  H   -0.031514
     2  H    0.000906
     3  F    0.030607
 Sum of APT charges =   0.00000
 APT charges with hydrogens summed into heavy atoms:
               1
     3  F    0.000000
 Electronic spatial extent (au):  <R**2>=            430.9231
 Charge=              0.0000 electrons
 Dipole moment (field-independent basis, Debye):
    X=             -0.2194    Y=              0.0000    Z=             -0.0000  Tot=              0.2194
 Quadrupole moment (field-independent basis, Debye-Ang):
   XX=             -7.0372   YY=             -7.6747   ZZ=             -7.6747
   XY=             -0.0000   XZ=              0.0000   YZ=             -0.0000
 Traceless Quadrupole moment (field-independent basis, Debye-Ang):
   XX=              0.4250   YY=             -0.2125   ZZ=             -0.2125
   XY=             -0.0000   XZ=              0.0000   YZ=             -0.0000
 Octapole moment (field-independent basis, Debye-Ang**2):
  XXX=            -35.1652  YYY=             -0.0000  ZZZ=              0.0000  XYY=            -13.5766
  XXY=             -0.0000  XXZ=              0.0000  XZZ=            -13.5766  YZZ=             -0.0000
  YYZ=              0.0000  XYZ=             -0.0000
 Hexadecapole moment (field-independent basis, Debye-Ang**3):
 XXXX=           -350.2559 YYYY=             -6.4689 ZZZZ=             -6.4689 XXXY=             -0.0000
 XXXZ=              0.0000 YYYX=             -0.0000 YYYZ=             -0.0000 ZZZX=              0.0000
 ZZZY=             -0.0000 XXYY=            -69.3932 XXZZ=            -69.3932 YYZZ=             -2.1563
 XXYZ=             -0.0000 YYXZ=              0.0000 ZZXY=             -0.0000
 N-N= 2.388451378343D+00 E-N=-2.457186025883D+02  KE= 1.005875652218D+02
  Exact polarizability:      35.277      -0.000       2.024       0.000      -0.000       2.024
 Approx polarizability:      26.653      -0.000       1.928       0.000       0.000       1.928
                          Isotropic Fermi Contact Couplings
        Atom                 a.u.       MegaHertz       Gauss      10(-4) cm-1
     1  H(1)              -0.28264   -1263.34924    -450.79442    -421.40795
     2  H(1)               0.28547    1276.02043     455.31582     425.63460
     3  F(19)              0.03010     126.63542      45.18667      42.24103
 --------------------------------------------------------
       Center         ----  Spin Dipole Couplings  ----
                      3XX-RR        3YY-RR        3ZZ-RR
 --------------------------------------------------------
     1   Atom        0.027656     -0.013828     -0.013828
     2   Atom       -0.018325      0.009162      0.009162
     3   Atom        6.220118     -3.110059     -3.110059
 --------------------------------------------------------
                        XY            XZ            YZ
 --------------------------------------------------------
     1   Atom        0.000000     -0.000000      0.000000
     2   Atom        0.000000     -0.000000      0.000000
     3   Atom       -0.000004      0.000005     -0.000000
 --------------------------------------------------------


 ---------------------------------------------------------------------------------
              Anisotropic Spin Dipole Couplings in Principal Axis System
 ---------------------------------------------------------------------------------

       Atom             a.u.   MegaHertz   Gauss  10(-4) cm-1        Axes

              Baa    -0.0138    -7.378    -2.633    -2.461  0.0000 -0.6391  0.7691
     1 H(1)   Bbb    -0.0138    -7.378    -2.633    -2.461  0.0000  0.7691  0.6391
              Bcc     0.0277    14.756     5.265     4.922  1.0000  0.0000 -0.0000
 
              Baa    -0.0183    -9.777    -3.489    -3.261  1.0000 -0.0000  0.0000
     2 H(1)   Bbb     0.0092     4.889     1.744     1.631 -0.0000 -0.6378  0.7702
              Bcc     0.0092     4.889     1.744     1.631 -0.0000  0.7702  0.6378
 
              Baa    -3.1101 -1561.951  -557.343  -521.011 -0.0000  0.7668  0.6419
     3 F(19)  Bbb    -3.1101 -1561.951  -557.343  -521.011 -0.0000 -0.6419  0.7668
              Bcc     6.2201  3123.903  1114.686  1042.022  1.0000 -0.0000  0.0000
 

 ---------------------------------------------------------------------------------

 Calling FoFJK, ICntrl=    100127 FMM=F ISym2X=0 I1Cent= 0 IOpClX= 1 NMat=1 NMatS=1 NMatT=0.
 Full mass-weighted force constant matrix:
 Low frequencies --- -770.7170 -139.1559    0.0005    0.0012    0.0013   36.2707
 Low frequencies ---   36.2710  295.5022  295.5022
 ******    2 imaginary frequencies (negative Signs) ****** 
 Diagonal vibrational polarizability:
        9.1869935       0.0104847       0.0104846
 Harmonic frequencies (cm**-1), IR intensities (KM/Mole), Raman scattering
 activities (A**4/AMU), depolarization ratios for plane and unpolarized
 incident light, reduced masses (AMU), force constants (mDyne/A),
 and normal coordinates:
                      1                      2                      3
                      A                      A                      A
 Frequencies --   -770.7170              -139.1559               286.6626
 Red. masses --      1.0080                 1.1084                 1.0140
 Frc consts  --      0.3528                 0.0126                 0.0491
 IR Inten    --      6.1093                 6.4115                 0.0320
  Atom  AN      X      Y      Z        X      Y      Z        X      Y      Z
     1   1     0.73  -0.00   0.00     0.68  -0.00   0.00    -0.00  -0.55   0.66
     2   1    -0.68   0.00  -0.00     0.73   0.00  -0.00    -0.00   0.32  -0.39
     3   9    -0.00   0.00  -0.00    -0.07   0.00  -0.00     0.00   0.01  -0.01
                      4
                      A
 Frequencies --    286.6627
 Red. masses --      1.0140
 Frc consts  --      0.0491
 IR Inten    --      0.0320
  Atom  AN      X      Y      Z
     1   1     0.00   0.66   0.55
     2   1     0.00  -0.39  -0.32
     3   9    -0.00  -0.01  -0.01

 -------------------
 - Thermochemistry -
 -------------------
 Temperature   298.150 Kelvin.  Pressure   1.00000 Atm.
 Atom     1 has atomic number  1 and mass   1.00783
 Atom     2 has atomic number  1 and mass   1.00783
 Atom     3 has atomic number  9 and mass  18.99840
 Molecular mass:    21.01405 amu.
 Principal axes and moments of inertia in atomic units:
                           1         2         3
     Eigenvalues --     0.00000 154.11779 154.11779
           X            1.00000  -0.00000   0.00000
           Y            0.00000   1.00000   0.00000
           Z            0.00000   0.00000   1.00000
 This molecule is a prolate symmetric top.
 Rotational symmetry number  1.
 Rotational temperature (Kelvin)      0.56200
 Rotational constant (GHZ):          11.710142
    2 imaginary frequencies ignored.
 Zero-point vibrational energy       3429.2 (Joules/Mol)
                                    0.81961 (Kcal/Mol)
 Warning -- explicit consideration of   2 degrees of freedom as
           vibrations may cause significant error
 Vibrational temperatures:    412.44   412.44
          (Kelvin)
 
 Zero-point correction=                           0.001306 (Hartree/Particle)
 Thermal correction to Energy=                    0.004541
 Thermal correction to Enthalpy=                  0.005485
 Thermal correction to Gibbs Free Energy=        -0.020119
 Sum of electronic and zero-point Energies=           -100.762891
 Sum of electronic and thermal Energies=              -100.759657
 Sum of electronic and thermal Enthalpies=            -100.758713
 Sum of electronic and thermal Free Energies=         -100.784316
 
                     E (Thermal)             CV                S
                      KCal/Mol        Cal/Mol-Kelvin    Cal/Mol-Kelvin
 Total                    2.849              8.365             53.887
 Electronic               0.000              0.000              1.377
 Translational            0.889              2.981             35.068
 Rotational               0.592              1.987             14.455
 Vibrational              1.368              3.397              2.987
 Vibration     1          0.684              1.698              1.494
 Vibration     2          0.684              1.698              1.494
                       Q            Log10(Q)             Ln(Q)
 Total Bot       0.179434D+10          9.253904         21.307902
 Total V=0       0.715620D+10          9.854682         22.691244
 Vib (Bot)       0.446638D+00         -0.350044         -0.806007
 Vib (Bot)    1  0.668310D+00         -0.175022         -0.403003
 Vib (Bot)    2  0.668310D+00         -0.175022         -0.403004
 Vib (V=0)       0.178129D+01          0.250734          0.577336
 Vib (V=0)    1  0.133465D+01          0.125367          0.288668
 Vib (V=0)    2  0.133465D+01          0.125367          0.288668
 Electronic      0.200000D+01          0.301030          0.693147
 Translational   0.378633D+07          6.578219         15.146908
 Rotational      0.530518D+03          2.724700          6.273853
 -------------------------------------------------------------------
 Center     Atomic                   Forces (Hartrees/Bohr)
 Number     Number              X              Y              Z
 -------------------------------------------------------------------
      1        1          -0.006504723    0.000000000   -0.000000000
      2        1           0.007445258    0.000000000   -0.000000000
      3        9          -0.000940535   -0.000000000    0.000000000
 -------------------------------------------------------------------
 Cartesian Forces:  Max     0.007445258 RMS     0.003310386

 GradGradGradGradGradGradGradGradGradGradGradGradGradGradGradGradGradGrad
 Berny optimization.
 Search for a local minimum.
 Step number   1 out of a maximum of    2
 All quantities printed in internal units (Hartrees-Bohrs-Radians)
 Second derivative matrix not updated -- analytic derivatives used.
 The second derivative matrix:
                          X1        Y1        Z1        X2        Y2
           X1          -0.01244
           Y1           0.00000   0.00174
           Z1          -0.00000   0.00000   0.00174
           X2           0.01096  -0.00000   0.00000  -0.01088
           Y2           0.00000  -0.00164   0.00000  -0.00000   0.00164
           Z2          -0.00000   0.00000  -0.00164   0.00000   0.00000
           X3           0.00147  -0.00000   0.00000  -0.00008  -0.00000
           Y3          -0.00000  -0.00009  -0.00000   0.00000   0.00000
           Z3           0.00000  -0.00000  -0.00009  -0.00000  -0.00000
                          Z2        X3        Y3        Z3
           Z2           0.00164
           X3           0.00000  -0.00139
           Y3          -0.00000   0.00000   0.00009
           Z3           0.00000  -0.00000   0.00000   0.00009
 ITU=  0
     Eigenvalues ---   -0.02269  -0.00152   0.00313   0.00313
 Eigenvalue     1 is  -2.27D-02 should be greater than     0.000000 Eigenvector:
                          X1        X2        X3        Z1        Y1
   1                    0.74144  -0.67061  -0.02361   0.00000  -0.00000
                          Z2        Y2        Z3        Y3
   1                   -0.00000   0.00000  -0.00000   0.00000
 Eigenvalue     2 is  -1.52D-03 should be greater than     0.000000 Eigenvector:
                          X2        X1        X3        Z1        Y1
   1                    0.67777   0.59947  -0.42575   0.00000  -0.00000
                          Z2        Y2        Z3        Y3
   1                   -0.00000   0.00000  -0.00000   0.00000
 Quadratic step=1.109D+00 exceeds max=3.000D-01 adjusted using Lamda=-1.240D-02.
 Angle between NR and scaled steps=  45.36 degrees.
 Angle between quadratic step and forces=  13.15 degrees.
 Linear search not attempted -- first point.
 B after Tr=    -0.027176   -0.000000   -0.000000
         Rot=    0.765846    0.643024   -0.000000    0.000000 Ang=  80.04 deg.
 Variable       Old X    -DE/DX   Delta X   Delta X   Delta X     New X
                                 (Linear)    (Quad)   (Total)
    X1        0.00000  -0.00650   0.00000  -0.14028  -0.16746  -0.16746
    Y1        0.00000   0.00000   0.00000  -0.00000   0.00000   0.00000
    Z1        0.00000  -0.00000   0.00000   0.00000   0.00000   0.00000
    X2       -4.53534   0.00745   0.00000   0.26258   0.23540  -4.29994
    Y2        0.00000   0.00000   0.00000   0.00000  -0.00000  -0.00000
    Z2        0.00000  -0.00000   0.00000  -0.00000  -0.00000  -0.00000
    X3        6.61404  -0.00094   0.00000  -0.04076  -0.06794   6.54610
    Y3        0.00000  -0.00000   0.00000   0.00000  -0.00000  -0.00000
    Z3        0.00000   0.00000   0.00000  -0.00000  -0.00000  -0.00000
         Item               Value     Threshold  Converged?
 Maximum Force            0.007445     0.000450     NO 
 RMS     Force            0.003310     0.000300     NO 
 Maximum Displacement     0.235401     0.001800     NO 
 RMS     Displacement     0.098923     0.001200     NO 
 Predicted change in Energy=-3.799124D-03
 GradGradGradGradGradGradGradGradGradGradGradGradGradGradGradGradGradGrad


 ----------------------------------------------------------------------

 Electric dipole moment (input orientation):
 (Debye = 10**-18 statcoulomb cm , SI units = C m)
                  (au)            (Debye)         (10**-30 SI)
   Tot        0.863218D-01      0.219408D+00      0.731867D+00
   x         -0.863218D-01     -0.219408D+00     -0.731867D+00
   y          0.000000D+00      0.000000D+00      0.000000D+00
   z          0.000000D+00      0.000000D+00      0.000000D+00

 Dipole polarizability, Alpha (input orientation).
 (esu units = cm**3 , SI units = C**2 m**2 J**-1)
 Alpha(0;0):
               (au)            (10**-24 esu)      (10**-40 SI)
   iso        0.131085D+02      0.194248D+01      0.216130D+01
   aniso      0.332524D+02      0.492749D+01      0.548257D+01
   xx         0.352767D+02      0.522747D+01      0.581635D+01
   yx         0.000000D+00      0.000000D+00      0.000000D+00
   yy         0.202440D+01      0.299984D+00      0.333778D+00
   zx         0.000000D+00      0.000000D+00      0.000000D+00
   zy         0.000000D+00      0.000000D+00      0.000000D+00
   zz         0.202440D+01      0.299984D+00      0.333778D+00

 ----------------------------------------------------------------------

 Dipole orientation:
     1          0.00000000          0.00000000          0.00000000
     1          0.00000001         -0.00000001          4.53534270
     9         -0.00000001          0.00000001         -6.61404144

 Electric dipole moment (dipole orientation):
 (Debye = 10**-18 statcoulomb cm , SI units = C m)
                  (au)            (Debye)         (10**-30 SI)
   Tot        0.863218D-01      0.219408D+00      0.731867D+00
   x          0.000000D+00      0.000000D+00      0.000000D+00
   y          0.000000D+00      0.000000D+00      0.000000D+00
   z          0.863218D-01      0.219408D+00      0.731867D+00

 Dipole polarizability, Alpha (dipole orientation).
 (esu units = cm**3 , SI units = C**2 m**2 J**-1)
 Alpha(0;0):
               (au)            (10**-24 esu)      (10**-40 SI)
   iso        0.131085D+02      0.194248D+01      0.216130D+01
   aniso      0.332524D+02      0.492749D+01      0.548257D+01
   xx         0.202440D+01      0.299984D+00      0.333778D+00
   yx         0.000000D+00      0.000000D+00      0.000000D+00
   yy         0.202440D+01      0.299984D+00      0.333778D+00
   zx         0.000000D+00      0.000000D+00      0.000000D+00
   zy         0.000000D+00      0.000000D+00      0.000000D+00
   zz         0.352767D+02      0.522747D+01      0.581635D+01

 ----------------------------------------------------------------------
 Unable to Open any file for archive entry.
 1\1\GINC-DESKTOP-B3RIHJD\Freq\UB3LYP\6-311G(d,p)\F1H2(2)\GARYX\22-Aug-
 2025\0\\# sp b3lyp/6-311g** Force nosymm scf=(qc)\\Title Card Required
 \\0,2\H,0.,0.,0.\H,-2.4,0.,0.\F,3.5,0.,0.\\Version=ES64L-G16RevC.01\HF
 =-100.7641975\S2=1.647139\S2-1=0.\S2A=0.752601\RMSD=1.424e-09\RMSF=3.3
 10e-03\ZeroPoint=0.0013061\Thermal=0.0045408\ETot=-100.7596567\HTot=-1
 00.7587126\GTot=-100.7843161\Dipole=-0.0863218,0.,0.\DipoleDeriv=-0.11
 07012,0.,0.,0.,0.0080803,0.,0.,0.,0.0080803,-0.0026823,0.,0.,0.,0.0027
 007,0.,0.,0.,0.0027007,0.1133835,0.,0.,0.,-0.010781,0.,0.,0.,-0.010781
 \Polar=35.2767466,-0.000001,2.024395,0.0000011,-0.0000001,2.0243951\Qu
 adrupole=0.3159844,-0.1579922,-0.1579922,-0.0000003,0.0000004,0.\PG=C*
 V [C*(H1H1F1)]\NImag=2\\-0.01243645,0.,0.00173530,0.,0.,0.00173530,0.0
 1096470,0.,0.,-0.01088346,0.,-0.00164180,0.,0.,0.00164040,0.,0.,-0.001
 64180,0.,0.,0.00164040,0.00147175,0.,0.,-0.00008124,0.,0.,-0.00139052,
 0.,-0.00009350,0.,0.,0.00000140,0.,0.,0.00009210,0.,0.,-0.00009350,0.,
 0.,0.00000140,0.,0.,0.00009210\\0.00650472,0.,0.,-0.00744526,0.,0.,0.0
 0094053,0.,0.\\\@
 The archive entry for this job was punched.


 A SLIP OF THE FOOT YOU MAY SOON RECOVER, BUT A SLIP OF THE TONGUE
 YOU MAY NEVER GET OVER. -- BEN FRANKLIN
 Job cpu time:       0 days  0 hours  0 minutes 35.5 seconds.
 Elapsed time:       0 days  0 hours  0 minutes  4.8 seconds.
 File lengths (MBytes):  RWF=      6 Int=      0 D2E=      0 Chk=      1 Scr=      1
 Normal termination of Gaussian 16 at Fri Aug 22 22:09:38 2025.
