 Entering Gaussian System, Link 0=g16
 Initial command:
 /home/garyx/gaussian/g16/l1.exe "/tmp/gaussian_scratch/Gau-144169.inp" -scrdir="/tmp/gaussian_scratch/"
 Entering Link 1 = /home/garyx/gaussian/g16/l1.exe PID=    144171.
  
 Copyright (c) 1988-2019, Gaussian, Inc.  All Rights Reserved.
  
 This is part of the Gaussian(R) 16 program.  It is based on
 the Gaussian(R) 09 system (copyright 2009, Gaussian, Inc.),
 the Gaussian(R) 03 system (copyright 2003, Gaussian, Inc.),
 the Gaussian(R) 98 system (copyright 1998, Gaussian, Inc.),
 the Gaussian(R) 94 system (copyright 1995, Gaussian, Inc.),
 the Gaussian 92(TM) system (copyright 1992, Gaussian, Inc.),
 the Gaussian 90(TM) system (copyright 1990, Gaussian, Inc.),
 the Gaussian 88(TM) system (copyright 1988, Gaussian, Inc.),
 the Gaussian 86(TM) system (copyright 1986, Carnegie Mellon
 University), and the Gaussian 82(TM) system (copyright 1983,
 Carnegie Mellon University). Gaussian is a federally registered
 trademark of Gaussian, Inc.
  
 This software contains proprietary and confidential information,
 including trade secrets, belonging to Gaussian, Inc.
  
 This software is provided under written license and may be
 used, copied, transmitted, or stored only in accord with that
 written license.
  
 The following legend is applicable only to US Government
 contracts under FAR:
  
                    RESTRICTED RIGHTS LEGEND
  
 Use, reproduction and disclosure by the US Government is
 subject to restrictions as set forth in subparagraphs (a)
 and (c) of the Commercial Computer Software - Restricted
 Rights clause in FAR 52.227-19.
  
 Gaussian, Inc.
 340 Quinnipiac St., Bldg. 40, Wallingford CT 06492
  
  
 ---------------------------------------------------------------
 Warning -- This program may not be used in any manner that
 competes with the business of Gaussian, Inc. or will provide
 assistance to any competitor of Gaussian, Inc.  The licensee
 of this program is prohibited from giving any competitor of
 Gaussian, Inc. access to this program.  By using this program,
 the user acknowledges that Gaussian, Inc. is engaged in the
 business of creating and licensing software in the field of
 computational chemistry and represents and warrants to the
 licensee that it is not a competitor of Gaussian, Inc. and that
 it will not use this program in any manner prohibited above.
 ---------------------------------------------------------------
  

 Cite this work as:
 Gaussian 16, Revision C.01,
 M. J. Frisch, G. W. Trucks, H. B. Schlegel, G. E. Scuseria, 
 M. A. Robb, J. R. Cheeseman, G. Scalmani, V. Barone, 
 G. A. Petersson, H. Nakatsuji, X. Li, M. Caricato, A. V. Marenich, 
 J. Bloino, B. G. Janesko, R. Gomperts, B. Mennucci, H. P. Hratchian, 
 J. V. Ortiz, A. F. Izmaylov, J. L. Sonnenberg, D. Williams-Young, 
 F. Ding, F. Lipparini, F. Egidi, J. Goings, B. Peng, A. Petrone, 
 T. Henderson, D. Ranasinghe, V. G. Zakrzewski, J. Gao, N. Rega, 
 G. Zheng, W. Liang, M. Hada, M. Ehara, K. Toyota, R. Fukuda, 
 J. Hasegawa, M. Ishida, T. Nakajima, Y. Honda, O. Kitao, H. Nakai, 
 T. Vreven, K. Throssell, J. A. Montgomery, Jr., J. E. Peralta, 
 F. Ogliaro, M. J. Bearpark, J. J. Heyd, E. N. Brothers, K. N. Kudin, 
 V. N. Staroverov, T. A. Keith, R. Kobayashi, J. Normand, 
 K. Raghavachari, A. P. Rendell, J. C. Burant, S. S. Iyengar, 
 J. Tomasi, M. Cossi, J. M. Millam, M. Klene, C. Adamo, R. Cammi, 
 J. W. Ochterski, R. L. Martin, K. Morokuma, O. Farkas, 
 J. B. Foresman, and D. J. Fox, Gaussian, Inc., Wallingford CT, 2019.
 
 ******************************************
 Gaussian 16:  ES64L-G16RevC.01  3-Jul-2019
                22-Aug-2025 
 ******************************************
 %mem=10GB
 %nprocs=8
 Will use up to    8 processors via shared memory.
 -----------------------------------------
 # sp b3lyp/6-311g** Force nosymm scf=(qc)
 -----------------------------------------
 1/10=4,30=1,38=1/1,3;
 2/12=2,15=1,17=6,18=5,40=1/2;
 3/5=4,6=6,7=101,11=2,25=1,30=1,71=2,74=-5,140=1/1,2,3;
 4//1;
 5/5=2,8=3,38=5,98=1/8;
 8/6=4,10=90,11=11/1;
 11/6=1,8=1,9=11,15=111,16=1,31=1/1,2,10;
 10/6=1,31=1/2;
 6/7=2,8=2,9=2,10=2,28=1/1;
 7/8=1,10=1,25=1,30=1/1,2,3,16;
 1/10=4,30=1/3;
 99//99;
 -------------------
 Title Card Required
 -------------------
 Symbolic Z-matrix:
 Charge =  0 Multiplicity = 2
 H                     0.        0.        0. 
 H                    -3.65      0.        0. 
 F                     0.8       0.        0. 
 

 GradGradGradGradGradGradGradGradGradGradGradGradGradGradGradGradGradGrad
 Berny optimization.
 Initialization pass.
 Trust Radius=3.00D-01 FncErr=1.00D-07 GrdErr=1.00D-07 EigMax=2.50D+02 EigMin=1.00D-04
 Number of steps in this run=      2 maximum allowed number of steps=      2.
 GradGradGradGradGradGradGradGradGradGradGradGradGradGradGradGradGradGrad

                          Input orientation:                          
 ---------------------------------------------------------------------
 Center     Atomic      Atomic             Coordinates (Angstroms)
 Number     Number       Type             X           Y           Z
 ---------------------------------------------------------------------
      1          1           0        0.000000    0.000000    0.000000
      2          1           0       -3.650000    0.000000    0.000000
      3          9           0        0.800000    0.000000    0.000000
 ---------------------------------------------------------------------
                    Distance matrix (angstroms):
                    1          2          3
     1  H    0.000000
     2  H    3.650000   0.000000
     3  F    0.800000   4.450000   0.000000
 Symmetry turned off by external request.
 Stoichiometry    FH2(2)
 Framework group  C*V[C*(HHF)]
 Deg. of freedom     2
 Full point group                 C*V     NOp   4
 Rotational constants (GHZ):           0.0000000          26.2258889          26.2258889
 Standard basis: 6-311G(d,p) (5D, 7F)
    30 basis functions,    48 primitive gaussians,    31 cartesian basis functions
     6 alpha electrons        5 beta electrons
       nuclear repulsion energy         7.1684697252 Hartrees.
 NAtoms=    3 NActive=    3 NUniq=    3 SFac= 1.00D+00 NAtFMM=   60 NAOKFM=F Big=F
 Integral buffers will be    131072 words long.
 Raffenetti 2 integral format.
 Two-electron integral symmetry is turned off.
 One-electron integrals computed using PRISM.
 NBasis=    30 RedAO= T EigKep=  1.82D-02  NBF=    30
 NBsUse=    30 1.00D-06 EigRej= -1.00D+00 NBFU=    30
 ExpMin= 1.03D-01 ExpMax= 1.14D+04 ExpMxC= 1.72D+03 IAcc=3 IRadAn=         5 AccDes= 0.00D+00
 Harris functional with IExCor=  402 and IRadAn=       5 diagonalized for initial guess.
 HarFok:  IExCor=  402 AccDes= 0.00D+00 IRadAn=         5 IDoV= 1 UseB2=F ITyADJ=14
 ICtDFT=  3500011 ScaDFX=  1.000000  1.000000  1.000000  1.000000
 FoFCou: FMM=F IPFlag=           0 FMFlag=      100000 FMFlg1=           0
         NFxFlg=           0 DoJE=T BraDBF=F KetDBF=T FulRan=T
         wScrn=  0.000000 ICntrl=       500 IOpCl=  0 I1Cent=   200000004 NGrid=           0
         NMat0=    1 NMatS0=      1 NMatT0=    0 NMatD0=    1 NMtDS0=    0 NMtDT0=    0
 Symmetry not used in FoFCou.
 Initial guess <Sx>= 0.0000 <Sy>= 0.0000 <Sz>= 0.5000 <S**2>= 0.7500 S= 0.5000
 Keep R1 and R2 ints in memory in canonical form, NReq=7127049.
 Gradient too large for Newton-Raphson -- use scaled steepest descent instead.
     Accept linear search using points  2 and  3.
 Gradient too large for Newton-Raphson -- use scaled steepest descent instead.
     Minimum is close to point  3 DX=  2.53D-02 DF= -1.07D-06 DXR=  3.49D-02 DFR=  1.22D-03 which will be used.
 Gradient too large for Newton-Raphson -- use scaled steepest descent instead.
 LinEq1:  Iter=  0 NonCon=     1 RMS=3.93D-04 Max=4.68D-03 NDo=     1
 AX will form     1 AO Fock derivatives at one time.
 LinEq1:  Iter=  1 NonCon=     1 RMS=1.94D-04 Max=1.25D-03 NDo=     1
 LinEq1:  Iter=  2 NonCon=     1 RMS=8.84D-06 Max=1.07D-04 NDo=     1
 LinEq1:  Iter=  3 NonCon=     1 RMS=5.03D-07 Max=3.67D-06 NDo=     1
 LinEq1:  Iter=  4 NonCon=     1 RMS=7.59D-08 Max=6.18D-07 NDo=     1
 LinEq1:  Iter=  5 NonCon=     1 RMS=2.12D-08 Max=1.41D-07 NDo=     1
 LinEq1:  Iter=  6 NonCon=     1 RMS=1.83D-09 Max=8.81D-09 NDo=     1
 LinEq1:  Iter=  7 NonCon=     0 RMS=1.30D-10 Max=6.68D-10 NDo=     1
 Linear equations converged to 1.640D-09 1.640D-08 after     7 iterations.
     Minimum is close to point  2 DX=  9.43D-04 DF= -2.14D-11 DXR=  9.42D-04 DFR=  8.88D-07 which will be used.
 LinEq1:  Iter=  0 NonCon=     1 RMS=5.42D-07 Max=8.03D-06 NDo=     1
 LinEq1:  Iter=  1 NonCon=     1 RMS=7.88D-08 Max=3.98D-07 NDo=     1
 LinEq1:  Iter=  2 NonCon=     1 RMS=1.64D-08 Max=1.74D-07 NDo=     1
 LinEq1:  Iter=  3 NonCon=     1 RMS=2.17D-09 Max=1.38D-08 NDo=     1
 LinEq1:  Iter=  4 NonCon=     1 RMS=2.41D-10 Max=2.05D-09 NDo=     1
 LinEq1:  Iter=  5 NonCon=     1 RMS=5.12D-11 Max=3.80D-10 NDo=     1
 LinEq1:  Iter=  6 NonCon=     0 RMS=3.57D-12 Max=2.90D-11 NDo=     1
 Linear equations converged to 4.355D-11 4.355D-10 after     6 iterations.
 SCF Done:  E(UB3LYP) =  -100.950296421     a.u. after    6 cycles
            Convg  =    0.7100D-10                    26 Fock formations.
              S**2 =  0.7500                  -V/T =  1.9980
 <Sx>= 0.0000 <Sy>= 0.0000 <Sz>= 0.5000 <S**2>= 0.7500 S= 0.5000
 <L.S>=  0.00000000000    
 Annihilation of the first spin contaminant:
 S**2 before annihilation     0.7500,   after     0.7500
 DoSCS=F DFT=T ScalE2(SS,OS)=  1.000000  1.000000
 Range of M.O.s used for correlation:     1    30
 NBasis=    30 NAE=     6 NBE=     5 NFC=     0 NFV=     0
 NROrb=     30 NOA=     6 NOB=     5 NVA=    24 NVB=    25
 Symmetrizing basis deriv contribution to polar:
 IMax=3 JMax=2 DiffMx= 0.00D+00
 G2DrvN: will do     4 centers at a time, making    1 passes.
 Calling FoFCou, ICntrl=  3107 FMM=F I1Cent=   0 AccDes= 0.00D+00.
 End of G2Drv F.D. properties file   721 does not exist.
 End of G2Drv F.D. properties file   722 does not exist.
 End of G2Drv F.D. properties file   788 does not exist.
          IDoAtm=111
          Differentiating once with respect to electric field.
                with respect to dipole field.
          Differentiating once with respect to nuclear coordinates.
 Keep R1 and R2 ints in memory in canonical form, NReq=7101519.
          There are    12 degrees of freedom in the 1st order CPHF.  IDoFFX=6 NUNeed=     3.
      9 vectors produced by pass  0 Test12= 2.24D-15 8.33D-09 XBig12= 2.83D+00 7.41D-01.
 AX will form     9 AO Fock derivatives at one time.
      9 vectors produced by pass  1 Test12= 2.24D-15 8.33D-09 XBig12= 2.10D-01 1.42D-01.
      9 vectors produced by pass  2 Test12= 2.24D-15 8.33D-09 XBig12= 2.61D-03 1.81D-02.
      9 vectors produced by pass  3 Test12= 2.24D-15 8.33D-09 XBig12= 2.22D-06 7.17D-04.
      6 vectors produced by pass  4 Test12= 2.24D-15 8.33D-09 XBig12= 3.01D-09 1.50D-05.
      4 vectors produced by pass  5 Test12= 2.24D-15 8.33D-09 XBig12= 1.00D-11 9.38D-07.
      1 vectors produced by pass  6 Test12= 2.24D-15 8.33D-09 XBig12= 5.60D-14 8.30D-08.
 InvSVY:  IOpt=1 It=  1 EMax= 6.66D-16
 Solved reduced A of dimension    47 with     9 vectors.
 Isotropic polarizability for W=    0.000000        3.15 Bohr**3.
 End of Minotr F.D. properties file   721 does not exist.
 End of Minotr F.D. properties file   722 does not exist.
 End of Minotr F.D. properties file   788 does not exist.

 **********************************************************************

            Population analysis using the SCF Density.

 **********************************************************************

 Alpha  occ. eigenvalues --  -24.63678  -1.23044  -0.56191  -0.40653  -0.40653
 Alpha  occ. eigenvalues --   -0.33416
 Alpha virt. eigenvalues --    0.05072   0.24496   0.45924   0.94201   0.94201
 Alpha virt. eigenvalues --    0.97001   1.23927   1.24093   1.24093   1.29678
 Alpha virt. eigenvalues --    1.39813   1.39813   2.02351   2.14444   2.53068
 Alpha virt. eigenvalues --    3.80134   3.80134   4.18230   4.18230   4.83342
 Alpha virt. eigenvalues --    6.02074   6.02074   6.82254  66.73485
  Beta  occ. eigenvalues --  -24.63678  -1.23042  -0.56189  -0.40652  -0.40652
  Beta virt. eigenvalues --   -0.05196   0.05438   0.39186   0.45926   0.94202
  Beta virt. eigenvalues --    0.94202   0.96995   1.29414   1.39813   1.39813
  Beta virt. eigenvalues --    1.50701   1.50935   1.50935   2.02448   2.44612
  Beta virt. eigenvalues --    2.53049   3.80134   3.80134   4.18232   4.18232
  Beta virt. eigenvalues --    4.83330   6.02074   6.02074   6.82251  66.73486
          Condensed to atoms (all electrons):
               1          2          3
     1  H    0.420941   0.000672   0.303568
     2  H    0.000672   0.998734  -0.000012
     3  F    0.303568  -0.000012   8.971868
          Atomic-Atomic Spin Densities.
               1          2          3
     1  H   -0.000298   0.000600   0.000172
     2  H    0.000600   0.998706  -0.000026
     3  F    0.000172  -0.000026   0.000098
 Mulliken charges and spin densities:
               1          2
     1  H    0.274818   0.000475
     2  H    0.000606   0.999281
     3  F   -0.275424   0.000245
 Sum of Mulliken charges =   0.00000   1.00000
 Mulliken charges and spin densities with hydrogens summed into heavy atoms:
               1          2
     3  F    0.000000   1.000000
 APT charges:
               1
     1  H    0.404962
     2  H   -0.000822
     3  F   -0.404140
 Sum of APT charges =   0.00000
 APT charges with hydrogens summed into heavy atoms:
               1
     3  F    0.000000
 Electronic spatial extent (au):  <R**2>=             83.8706
 Charge=              0.0000 electrons
 Dipole moment (field-independent basis, Debye):
    X=             -1.7400    Y=             -0.0000    Z=              0.0000  Tot=              1.7400
 Quadrupole moment (field-independent basis, Debye-Ang):
   XX=             -7.6132   YY=             -6.7692   ZZ=             -6.7692
   XY=             -0.0000   XZ=              0.0000   YZ=             -0.0000
 Traceless Quadrupole moment (field-independent basis, Debye-Ang):
   XX=             -0.5627   YY=              0.2813   ZZ=              0.2813
   XY=             -0.0000   XZ=              0.0000   YZ=             -0.0000
 Octapole moment (field-independent basis, Debye-Ang**2):
  XXX=              2.4051  YYY=             -0.0000  ZZZ=              0.0000  XYY=              0.9959
  XXY=             -0.0000  XXZ=              0.0000  XZZ=              0.9959  YZZ=             -0.0000
  YYZ=              0.0000  XYZ=             -0.0000
 Hexadecapole moment (field-independent basis, Debye-Ang**3):
 XXXX=           -132.2541 YYYY=             -4.8056 ZZZZ=             -4.8056 XXXY=             -0.0000
 XXXZ=              0.0000 YYYX=             -0.0000 YYYZ=             -0.0000 ZZZX=              0.0000
 ZZZY=             -0.0000 XXYY=            -23.2996 XXZZ=            -23.2996 YYZZ=             -1.6019
 XXYZ=             -0.0000 YYXZ=              0.0000 ZZXY=             -0.0000
 N-N= 7.168469725194D+00 E-N=-2.560564560653D+02  KE= 1.011538718816D+02
  Exact polarizability:       4.576      -0.000       2.441       0.000       0.000       2.441
 Approx polarizability:       5.153      -0.000       2.422      -0.000       0.000       2.422
                          Isotropic Fermi Contact Couplings
        Atom                 a.u.       MegaHertz       Gauss      10(-4) cm-1
     1  H(1)              -0.00003      -0.14309      -0.05106      -0.04773
     2  H(1)               0.29684    1326.85209     473.45382     442.59022
     3  F(19)             -0.00031      -1.29215      -0.46107      -0.43102
 --------------------------------------------------------
       Center         ----  Spin Dipole Couplings  ----
                      3XX-RR        3YY-RR        3ZZ-RR
 --------------------------------------------------------
     1   Atom        0.006331     -0.003166     -0.003166
     2   Atom        0.000056     -0.000028     -0.000028
     3   Atom        0.004668     -0.002334     -0.002334
 --------------------------------------------------------
                        XY            XZ            YZ
 --------------------------------------------------------
     1   Atom        0.000000      0.000000      0.000000
     2   Atom        0.000000      0.000000      0.000000
     3   Atom        0.000000      0.000000      0.000000
 --------------------------------------------------------


 ---------------------------------------------------------------------------------
              Anisotropic Spin Dipole Couplings in Principal Axis System
 ---------------------------------------------------------------------------------

       Atom             a.u.   MegaHertz   Gauss  10(-4) cm-1        Axes

              Baa    -0.0032    -1.689    -0.603    -0.563  0.0000  0.0000  1.0000
     1 H(1)   Bbb    -0.0032    -1.689    -0.603    -0.563 -0.0000  1.0000  0.0000
              Bcc     0.0063     3.378     1.205     1.127  1.0000  0.0000  0.0000
 
              Baa    -0.0000    -0.015    -0.005    -0.005 -0.0000  1.0000  0.0000
     2 H(1)   Bbb    -0.0000    -0.015    -0.005    -0.005  0.0000  0.0000  1.0000
              Bcc     0.0001     0.030     0.011     0.010  1.0000  0.0000  0.0000
 
              Baa    -0.0023    -1.172    -0.418    -0.391  0.0000  0.0000  1.0000
     3 F(19)  Bbb    -0.0023    -1.172    -0.418    -0.391 -0.0000  1.0000  0.0000
              Bcc     0.0047     2.345     0.837     0.782  1.0000  0.0000  0.0000
 

 ---------------------------------------------------------------------------------

 Calling FoFJK, ICntrl=    100127 FMM=F ISym2X=0 I1Cent= 0 IOpClX= 1 NMat=1 NMatS=1 NMatT=0.
 Full mass-weighted force constant matrix:
 Low frequencies ----2014.5856-2014.5856  -39.1629   -0.0008    0.0016    0.0016
 Low frequencies ---   12.7868   12.7868 6349.8286
 ******    3 imaginary frequencies (negative Signs) ****** 
 Diagonal vibrational polarizability:
        0.4423404       1.3487370       1.3487370
 Harmonic frequencies (cm**-1), IR intensities (KM/Mole), Raman scattering
 activities (A**4/AMU), depolarization ratios for plane and unpolarized
 incident light, reduced masses (AMU), force constants (mDyne/A),
 and normal coordinates:
                      1                      2                      3
                      A                      A                      A
 Frequencies --  -1982.3016             -1982.3016               -39.1629
 Red. masses --      1.0408                 1.0408                 1.0532
 Frc consts  --      2.4096                 2.4096                 0.0010
 IR Inten    --    196.9399               196.9399                 0.0212
  Atom  AN      X      Y      Z        X      Y      Z        X      Y      Z
     1   1    -0.00   0.98  -0.00     0.00   0.00   0.98    -0.05  -0.00   0.00
     2   1     0.00  -0.18   0.00    -0.00  -0.00  -0.18     1.00   0.00  -0.00
     3   9     0.00  -0.04   0.00    -0.00  -0.00  -0.04    -0.05   0.00  -0.00
                      4
                      A
 Frequencies --   6349.8286
 Red. masses --      1.0583
 Frc consts  --     25.1413
 IR Inten    --    104.7355
  Atom  AN      X      Y      Z
     1   1     1.00   0.00  -0.00
     2   1     0.00  -0.00   0.00
     3   9    -0.05  -0.00   0.00

 -------------------
 - Thermochemistry -
 -------------------
 Temperature   298.150 Kelvin.  Pressure   1.00000 Atm.
 Atom     1 has atomic number  1 and mass   1.00783
 Atom     2 has atomic number  1 and mass   1.00783
 Atom     3 has atomic number  9 and mass  18.99840
 Molecular mass:    21.01405 amu.
 Principal axes and moments of inertia in atomic units:
                           1         2         3
     Eigenvalues --     0.00000  68.81525  68.81525
           X            1.00000  -0.00000   0.00000
           Y            0.00000   1.00000   0.00000
           Z            0.00000   0.00000   1.00000
 This molecule is a prolate symmetric top.
 Rotational symmetry number  1.
 Rotational temperature (Kelvin)      1.25864
 Rotational constant (GHZ):          26.225889
    3 imaginary frequencies ignored.
 Zero-point vibrational energy      37980.4 (Joules/Mol)
                                    9.07754 (Kcal/Mol)
 Vibrational temperatures:   9135.99
          (Kelvin)
 
 Zero-point correction=                           0.014466 (Hartree/Particle)
 Thermal correction to Energy=                    0.016826
 Thermal correction to Enthalpy=                  0.017771
 Thermal correction to Gibbs Free Energy=        -0.005652
 Sum of electronic and zero-point Energies=           -100.935830
 Sum of electronic and thermal Energies=              -100.933470
 Sum of electronic and thermal Enthalpies=            -100.932526
 Sum of electronic and thermal Free Energies=         -100.955949
 
                     E (Thermal)             CV                S
                      KCal/Mol        Cal/Mol-Kelvin    Cal/Mol-Kelvin
 Total                   10.559              4.968             49.298
 Electronic               0.000              0.000              1.377
 Translational            0.889              2.981             35.068
 Rotational               0.592              1.987             12.852
 Vibrational              9.078              0.000              0.000
                       Q            Log10(Q)             Ln(Q)
 Total Bot       0.398016D+03          2.599900          5.986492
 Total V=0       0.179383D+10          9.253780         21.307617
 Vib (Bot)       0.221881D-06         -6.653880        -15.321125
 Vib (V=0)       0.100000D+01          0.000000          0.000000
 Electronic      0.200000D+01          0.301030          0.693147
 Translational   0.378633D+07          6.578219         15.146908
 Rotational      0.236882D+03          2.374532          5.467562
 -------------------------------------------------------------------
 Center     Atomic                   Forces (Hartrees/Bohr)
 Number     Number              X              Y              Z
 -------------------------------------------------------------------
      1        1          -0.222262210    0.000000000   -0.000000000
      2        1           0.000046813    0.000000000   -0.000000000
      3        9           0.222215397   -0.000000000    0.000000000
 -------------------------------------------------------------------
 Cartesian Forces:  Max     0.222262210 RMS     0.104764378

 GradGradGradGradGradGradGradGradGradGradGradGradGradGradGradGradGradGrad
 Berny optimization.
 Search for a local minimum.
 Step number   1 out of a maximum of    2
 All quantities printed in internal units (Hartrees-Bohrs-Radians)
 Second derivative matrix not updated -- analytic derivatives used.
 The second derivative matrix:
                          X1        Y1        Z1        X2        Y2
           X1           1.46033
           Y1           0.00000  -0.14699
           Z1          -0.00000   0.00000  -0.14699
           X2           0.00005  -0.00000   0.00000  -0.00006
           Y2           0.00000  -0.00000   0.00000   0.00000   0.00001
           Z2           0.00000   0.00000  -0.00000  -0.00000   0.00000
           X3          -1.46038  -0.00000   0.00000   0.00001  -0.00000
           Y3          -0.00000   0.14700  -0.00000  -0.00000  -0.00000
           Z3           0.00000  -0.00000   0.14700  -0.00000  -0.00000
                          Z2        X3        Y3        Z3
           Z2           0.00001
           X3          -0.00000   1.46037
           Y3          -0.00000   0.00000  -0.14699
           Z3          -0.00000  -0.00000   0.00000  -0.14699
 ITU=  0
     Eigenvalues ---   -0.21531  -0.21531  -0.00008   2.38968
 Eigenvalue     1 is  -2.15D-01 should be greater than     0.000000 Eigenvector:
                          Y1        Y3        Y2        Z1        Z3
   1                    0.95041  -0.25985  -0.17086  -0.00166   0.00045
                          Z2        X1        X3        X2
   1                    0.00030  -0.00000   0.00000  -0.00000
 Eigenvalue     2 is  -2.15D-01 should be greater than     0.000000 Eigenvector:
                          Z1        Z3        Z2        Y1        Y3
   1                    0.95041  -0.25985  -0.17086   0.00166  -0.00045
                          Y2        X1        X3        X2
   1                   -0.00030   0.00000  -0.00000   0.00000
 Eigenvalue     3 is  -7.73D-05 should be greater than     0.000000 Eigenvector:
                          X2        X1        X3        Z1        Y1
   1                    0.94281  -0.23572  -0.23570   0.00000  -0.00000
                          Z3        Y3        Z2        Y2
   1                   -0.00000   0.00000  -0.00000   0.00000
 Quadratic step=7.871D-01 exceeds max=3.000D-01 adjusted using Lamda=-1.410D-04.
 Angle between NR and scaled steps=  14.66 degrees.
 Angle between quadratic step and forces=  68.98 degrees.
 Linear search not attempted -- first point.
 B after Tr=    -0.015120    0.000000    0.000000
         Rot=    0.731632    0.681699    0.000000   -0.000000 Ang=  85.95 deg.
 Variable       Old X    -DE/DX   Delta X   Delta X   Delta X     New X
                                 (Linear)    (Quad)   (Total)
    X1        0.00000  -0.22226   0.00000  -0.17486  -0.18998  -0.18998
    Y1        0.00000   0.00000   0.00000   0.00000  -0.00000  -0.00000
    Z1        0.00000  -0.00000   0.00000  -0.00000  -0.00000  -0.00000
    X2       -6.89750   0.00005   0.00000   0.24290   0.22778  -6.66972
    Y2        0.00000   0.00000   0.00000  -0.00000   0.00000   0.00000
    Z2        0.00000  -0.00000   0.00000   0.00000   0.00000   0.00000
    X3        1.51178   0.22222   0.00000  -0.02268  -0.03780   1.47398
    Y3        0.00000  -0.00000   0.00000  -0.00000   0.00000   0.00000
    Z3        0.00000   0.00000   0.00000   0.00000   0.00000   0.00000
         Item               Value     Threshold  Converged?
 Maximum Force            0.222262     0.000450     NO 
 RMS     Force            0.104764     0.000300     NO 
 Maximum Displacement     0.227781     0.001800     NO 
 RMS     Displacement     0.099669     0.001200     NO 
 Predicted change in Energy=-1.693055D-02
 GradGradGradGradGradGradGradGradGradGradGradGradGradGradGradGradGradGrad


 ----------------------------------------------------------------------

 Electric dipole moment (input orientation):
 (Debye = 10**-18 statcoulomb cm , SI units = C m)
                  (au)            (Debye)         (10**-30 SI)
   Tot        0.684569D+00      0.174000D+01      0.580402D+01
   x         -0.684569D+00     -0.174000D+01     -0.580402D+01
   y          0.000000D+00      0.000000D+00      0.000000D+00
   z          0.000000D+00      0.000000D+00      0.000000D+00

 Dipole polarizability, Alpha (input orientation).
 (esu units = cm**3 , SI units = C**2 m**2 J**-1)
 Alpha(0;0):
               (au)            (10**-24 esu)      (10**-40 SI)
   iso        0.315265D+01      0.467174D+00      0.519801D+00
   aniso      0.213523D+01      0.316409D+00      0.352052D+00
   xx         0.457614D+01      0.678113D+00      0.754503D+00
   yx         0.000000D+00      0.000000D+00      0.000000D+00
   yy         0.244090D+01      0.361705D+00      0.402451D+00
   zx         0.000000D+00      0.000000D+00      0.000000D+00
   zy         0.000000D+00      0.000000D+00      0.000000D+00
   zz         0.244090D+01      0.361705D+00      0.402451D+00

 ----------------------------------------------------------------------

 Dipole orientation:
     1          0.00000000          0.00000000          0.00000000
     1         -0.00000000          0.00000000          6.89750035
     9          0.00000000         -0.00000000         -1.51178090

 Electric dipole moment (dipole orientation):
 (Debye = 10**-18 statcoulomb cm , SI units = C m)
                  (au)            (Debye)         (10**-30 SI)
   Tot        0.684569D+00      0.174000D+01      0.580402D+01
   x          0.000000D+00      0.000000D+00      0.000000D+00
   y          0.000000D+00      0.000000D+00      0.000000D+00
   z          0.684569D+00      0.174000D+01      0.580402D+01

 Dipole polarizability, Alpha (dipole orientation).
 (esu units = cm**3 , SI units = C**2 m**2 J**-1)
 Alpha(0;0):
               (au)            (10**-24 esu)      (10**-40 SI)
   iso        0.315265D+01      0.467174D+00      0.519801D+00
   aniso      0.213523D+01      0.316409D+00      0.352052D+00
   xx         0.244090D+01      0.361705D+00      0.402451D+00
   yx         0.000000D+00      0.000000D+00      0.000000D+00
   yy         0.244090D+01      0.361705D+00      0.402451D+00
   zx         0.000000D+00      0.000000D+00      0.000000D+00
   zy         0.000000D+00      0.000000D+00      0.000000D+00
   zz         0.457614D+01      0.678113D+00      0.754503D+00

 ----------------------------------------------------------------------
 Unable to Open any file for archive entry.
 1\1\GINC-DESKTOP-B3RIHJD\Freq\UB3LYP\6-311G(d,p)\F1H2(2)\GARYX\22-Aug-
 2025\0\\# sp b3lyp/6-311g** Force nosymm scf=(qc)\\Title Card Required
 \\0,2\H,0.,0.,0.\H,-3.65,0.,0.\F,0.8,0.,0.\\Version=ES64L-G16RevC.01\H
 F=-100.9502964\S2=0.75\S2-1=0.\S2A=0.75\RMSD=4.329e-12\RMSF=1.048e-01\
 ZeroPoint=0.014466\Thermal=0.0168264\ETot=-100.93347\HTot=-100.9325258
 \GTot=-100.9559488\Dipole=-0.684569,0.,0.\DipoleDeriv=0.3208862,0.,0.,
 0.,0.4469993,0.,0.,0.,0.4469993,-0.0045604,0.,0.,0.,0.0010474,0.,0.,0.
 ,0.0010474,-0.3163258,0.,0.,0.,-0.4480467,0.,0.,0.,-0.4480467\Polar=4.
 576136,0.,2.4409038,0.,0.,2.4409038\Quadrupole=-0.4183475,0.2091738,0.
 2091738,0.,0.,0.\PG=C*V [C*(H1H1F1)]\NImag=3\\1.46033006,0.,-0.1469938
 1,0.,0.,-0.14699381,0.00004958,0.,0.,-0.00005569,0.,-0.00000307,0.,0.,
 0.00000594,0.,0.,-0.00000307,0.,0.,0.00000594,-1.46037964,0.,0.,0.0000
 0611,0.,0.,1.46037353,0.,0.14699688,0.,0.,-0.00000287,0.,0.,-0.1469940
 1,0.,0.,0.14699688,0.,0.,-0.00000287,0.,0.,-0.14699401\\0.22226221,0.,
 0.,-0.00004681,0.,0.,-0.22221540,0.,0.\\\@
 The archive entry for this job was punched.


 A successful marriage requires falling in love
 many times, always with the same person.
                           -- Mignon McLaughlin
 Job cpu time:       0 days  0 hours  0 minutes 12.4 seconds.
 Elapsed time:       0 days  0 hours  0 minutes  1.8 seconds.
 File lengths (MBytes):  RWF=      6 Int=      0 D2E=      0 Chk=      1 Scr=      1
 Normal termination of Gaussian 16 at Fri Aug 22 15:52:10 2025.
