 Entering Gaussian System, Link 0=g16
 Initial command:
 /home/garyx/gaussian/g16/l1.exe "/tmp/gaussian_scratch/Gau-748886.inp" -scrdir="/tmp/gaussian_scratch/"
 Entering Link 1 = /home/garyx/gaussian/g16/l1.exe PID=    748888.
  
 Copyright (c) 1988-2019, Gaussian, Inc.  All Rights Reserved.
  
 This is part of the Gaussian(R) 16 program.  It is based on
 the Gaussian(R) 09 system (copyright 2009, Gaussian, Inc.),
 the Gaussian(R) 03 system (copyright 2003, Gaussian, Inc.),
 the Gaussian(R) 98 system (copyright 1998, Gaussian, Inc.),
 the Gaussian(R) 94 system (copyright 1995, Gaussian, Inc.),
 the Gaussian 92(TM) system (copyright 1992, Gaussian, Inc.),
 the Gaussian 90(TM) system (copyright 1990, Gaussian, Inc.),
 the Gaussian 88(TM) system (copyright 1988, Gaussian, Inc.),
 the Gaussian 86(TM) system (copyright 1986, Carnegie Mellon
 University), and the Gaussian 82(TM) system (copyright 1983,
 Carnegie Mellon University). Gaussian is a federally registered
 trademark of Gaussian, Inc.
  
 This software contains proprietary and confidential information,
 including trade secrets, belonging to Gaussian, Inc.
  
 This software is provided under written license and may be
 used, copied, transmitted, or stored only in accord with that
 written license.
  
 The following legend is applicable only to US Government
 contracts under FAR:
  
                    RESTRICTED RIGHTS LEGEND
  
 Use, reproduction and disclosure by the US Government is
 subject to restrictions as set forth in subparagraphs (a)
 and (c) of the Commercial Computer Software - Restricted
 Rights clause in FAR 52.227-19.
  
 Gaussian, Inc.
 340 Quinnipiac St., Bldg. 40, Wallingford CT 06492
  
  
 ---------------------------------------------------------------
 Warning -- This program may not be used in any manner that
 competes with the business of Gaussian, Inc. or will provide
 assistance to any competitor of Gaussian, Inc.  The licensee
 of this program is prohibited from giving any competitor of
 Gaussian, Inc. access to this program.  By using this program,
 the user acknowledges that Gaussian, Inc. is engaged in the
 business of creating and licensing software in the field of
 computational chemistry and represents and warrants to the
 licensee that it is not a competitor of Gaussian, Inc. and that
 it will not use this program in any manner prohibited above.
 ---------------------------------------------------------------
  

 Cite this work as:
 Gaussian 16, Revision C.01,
 M. J. Frisch, G. W. Trucks, H. B. Schlegel, G. E. Scuseria, 
 M. A. Robb, J. R. Cheeseman, G. Scalmani, V. Barone, 
 G. A. Petersson, H. Nakatsuji, X. Li, M. Caricato, A. V. Marenich, 
 J. Bloino, B. G. Janesko, R. Gomperts, B. Mennucci, H. P. Hratchian, 
 J. V. Ortiz, A. F. Izmaylov, J. L. Sonnenberg, D. Williams-Young, 
 F. Ding, F. Lipparini, F. Egidi, J. Goings, B. Peng, A. Petrone, 
 T. Henderson, D. Ranasinghe, V. G. Zakrzewski, J. Gao, N. Rega, 
 G. Zheng, W. Liang, M. Hada, M. Ehara, K. Toyota, R. Fukuda, 
 J. Hasegawa, M. Ishida, T. Nakajima, Y. Honda, O. Kitao, H. Nakai, 
 T. Vreven, K. Throssell, J. A. Montgomery, Jr., J. E. Peralta, 
 F. Ogliaro, M. J. Bearpark, J. J. Heyd, E. N. Brothers, K. N. Kudin, 
 V. N. Staroverov, T. A. Keith, R. Kobayashi, J. Normand, 
 K. Raghavachari, A. P. Rendell, J. C. Burant, S. S. Iyengar, 
 J. Tomasi, M. Cossi, J. M. Millam, M. Klene, C. Adamo, R. Cammi, 
 J. W. Ochterski, R. L. Martin, K. Morokuma, O. Farkas, 
 J. B. Foresman, and D. J. Fox, Gaussian, Inc., Wallingford CT, 2019.
 
 ******************************************
 Gaussian 16:  ES64L-G16RevC.01  3-Jul-2019
                22-Aug-2025 
 ******************************************
 %mem=10GB
 %nprocs=8
 Will use up to    8 processors via shared memory.
 -----------------------------------------
 # sp b3lyp/6-311g** Force nosymm scf=(qc)
 -----------------------------------------
 1/10=4,30=1,38=1/1,3;
 2/12=2,15=1,17=6,18=5,40=1/2;
 3/5=4,6=6,7=101,11=2,25=1,30=1,71=2,74=-5,140=1/1,2,3;
 4//1;
 5/5=2,8=3,38=5,98=1/8;
 8/6=4,10=90,11=11/1;
 11/6=1,8=1,9=11,15=111,16=1,31=1/1,2,10;
 10/6=1,31=1/2;
 6/7=2,8=2,9=2,10=2,28=1/1;
 7/8=1,10=1,25=1,30=1/1,2,3,16;
 1/10=4,30=1/3;
 99//99;
 -------------------
 Title Card Required
 -------------------
 Symbolic Z-matrix:
 Charge =  0 Multiplicity = 2
 H                     0.        0.        0. 
 H                    -0.8       0.        0. 
 F                     2.95      0.        0. 
 

 GradGradGradGradGradGradGradGradGradGradGradGradGradGradGradGradGradGrad
 Berny optimization.
 Initialization pass.
 Trust Radius=3.00D-01 FncErr=1.00D-07 GrdErr=1.00D-07 EigMax=2.50D+02 EigMin=1.00D-04
 Number of steps in this run=      2 maximum allowed number of steps=      2.
 GradGradGradGradGradGradGradGradGradGradGradGradGradGradGradGradGradGrad

                          Input orientation:                          
 ---------------------------------------------------------------------
 Center     Atomic      Atomic             Coordinates (Angstroms)
 Number     Number       Type             X           Y           Z
 ---------------------------------------------------------------------
      1          1           0        0.000000    0.000000    0.000000
      2          1           0       -0.800000    0.000000    0.000000
      3          9           0        2.950000    0.000000    0.000000
 ---------------------------------------------------------------------
                    Distance matrix (angstroms):
                    1          2          3
     1  H    0.000000
     2  H    0.800000   0.000000
     3  F    2.950000   3.750000   0.000000
 Symmetry turned off by external request.
 Stoichiometry    FH2(2)
 Framework group  C*V[C*(HHF)]
 Deg. of freedom     2
 Full point group                 C*V     NOp   4
 Rotational constants (GHZ):           0.0000000          24.3281971          24.3281971
 Standard basis: 6-311G(d,p) (5D, 7F)
    30 basis functions,    48 primitive gaussians,    31 cartesian basis functions
     6 alpha electrons        5 beta electrons
       nuclear repulsion energy         3.5459357684 Hartrees.
 NAtoms=    3 NActive=    3 NUniq=    3 SFac= 1.00D+00 NAtFMM=   60 NAOKFM=F Big=F
 Integral buffers will be    131072 words long.
 Raffenetti 2 integral format.
 Two-electron integral symmetry is turned off.
 One-electron integrals computed using PRISM.
 NBasis=    30 RedAO= T EigKep=  1.93D-02  NBF=    30
 NBsUse=    30 1.00D-06 EigRej= -1.00D+00 NBFU=    30
 ExpMin= 1.03D-01 ExpMax= 1.14D+04 ExpMxC= 1.72D+03 IAcc=3 IRadAn=         5 AccDes= 0.00D+00
 Harris functional with IExCor=  402 and IRadAn=       5 diagonalized for initial guess.
 HarFok:  IExCor=  402 AccDes= 0.00D+00 IRadAn=         5 IDoV= 1 UseB2=F ITyADJ=14
 ICtDFT=  3500011 ScaDFX=  1.000000  1.000000  1.000000  1.000000
 FoFCou: FMM=F IPFlag=           0 FMFlag=      100000 FMFlg1=           0
         NFxFlg=           0 DoJE=T BraDBF=F KetDBF=T FulRan=T
         wScrn=  0.000000 ICntrl=       500 IOpCl=  0 I1Cent=   200000004 NGrid=           0
         NMat0=    1 NMatS0=      1 NMatT0=    0 NMatD0=    1 NMtDS0=    0 NMtDT0=    0
 Symmetry not used in FoFCou.
 Initial guess <Sx>= 0.0000 <Sy>= 0.0000 <Sz>= 0.5000 <S**2>= 0.7500 S= 0.5000
 Keep R1 and R2 ints in memory in canonical form, NReq=7127049.
 Gradient too large for Newton-Raphson -- use scaled steepest descent instead.
     Accept linear search using points  3 and  4.
 Gradient too large for Newton-Raphson -- use scaled steepest descent instead.
     Minimum is close to point  3 DX=  5.73D-02 DF= -1.41D-06 DXR=  5.99D-02 DFR=  3.60D-03 which will be used.
 LinEq1:  Iter=  0 NonCon=     1 RMS=3.38D-04 Max=3.69D-03 NDo=     1
 AX will form     1 AO Fock derivatives at one time.
 LinEq1:  Iter=  1 NonCon=     1 RMS=1.86D-04 Max=1.74D-03 NDo=     1
 LinEq1:  Iter=  2 NonCon=     1 RMS=2.46D-05 Max=2.02D-04 NDo=     1
 LinEq1:  Iter=  3 NonCon=     1 RMS=4.71D-06 Max=3.35D-05 NDo=     1
 LinEq1:  Iter=  4 NonCon=     1 RMS=4.55D-07 Max=5.23D-06 NDo=     1
 LinEq1:  Iter=  5 NonCon=     1 RMS=1.71D-07 Max=2.07D-06 NDo=     1
 LinEq1:  Iter=  6 NonCon=     1 RMS=6.05D-08 Max=6.85D-07 NDo=     1
 LinEq1:  Iter=  7 NonCon=     1 RMS=2.60D-08 Max=2.69D-07 NDo=     1
 LinEq1:  Iter=  8 NonCon=     1 RMS=1.42D-09 Max=1.84D-08 NDo=     1
 LinEq1:  Iter=  9 NonCon=     0 RMS=8.20D-11 Max=6.46D-10 NDo=     1
 Linear equations converged to 1.640D-09 1.640D-08 after     9 iterations.
     Minimum is close to point  2 DX=  7.86D-04 DF= -2.31D-11 DXR=  7.86D-04 DFR=  6.17D-07 which will be used.
 LinEq1:  Iter=  0 NonCon=     1 RMS=3.59D-07 Max=3.47D-06 NDo=     1
 LinEq1:  Iter=  1 NonCon=     1 RMS=1.67D-07 Max=1.46D-06 NDo=     1
 LinEq1:  Iter=  2 NonCon=     1 RMS=4.32D-08 Max=6.11D-07 NDo=     1
 LinEq1:  Iter=  3 NonCon=     1 RMS=1.57D-08 Max=1.22D-07 NDo=     1
 LinEq1:  Iter=  4 NonCon=     1 RMS=2.83D-09 Max=1.39D-08 NDo=     1
 LinEq1:  Iter=  5 NonCon=     1 RMS=3.59D-10 Max=3.27D-09 NDo=     1
 LinEq1:  Iter=  6 NonCon=     1 RMS=1.06D-10 Max=1.33D-09 NDo=     1
 LinEq1:  Iter=  7 NonCon=     0 RMS=3.22D-11 Max=3.19D-10 NDo=     1
 Linear equations converged to 8.172D-11 8.172D-10 after     7 iterations.
 Incorrect curvature in search direction -- initial direction reversed.
 LinEq1:  Iter=  0 NonCon=     1 RMS=1.55D-06 Max=1.23D-05 NDo=     1
 LinEq1:  Iter=  1 NonCon=     1 RMS=5.80D-07 Max=4.68D-06 NDo=     1
 LinEq1:  Iter=  2 NonCon=     1 RMS=2.16D-07 Max=1.96D-06 NDo=     1
 LinEq1:  Iter=  3 NonCon=     1 RMS=8.97D-08 Max=1.02D-06 NDo=     1
 LinEq1:  Iter=  4 NonCon=     1 RMS=3.69D-08 Max=4.66D-07 NDo=     1
 LinEq1:  Iter=  5 NonCon=     1 RMS=1.27D-08 Max=9.63D-08 NDo=     1
 LinEq1:  Iter=  6 NonCon=     1 RMS=2.22D-09 Max=1.15D-08 NDo=     1
 LinEq1:  Iter=  7 NonCon=     0 RMS=3.27D-10 Max=2.40D-09 NDo=     1
 Linear equations converged to 5.179D-10 5.179D-09 after     7 iterations.
 LinEq1:  Iter=  0 NonCon=     1 RMS=5.84D-07 Max=4.29D-06 NDo=     1
 LinEq1:  Iter=  1 NonCon=     1 RMS=1.62D-07 Max=1.50D-06 NDo=     1
 LinEq1:  Iter=  2 NonCon=     1 RMS=9.03D-08 Max=6.83D-07 NDo=     1
 LinEq1:  Iter=  3 NonCon=     1 RMS=4.46D-08 Max=5.98D-07 NDo=     1
 LinEq1:  Iter=  4 NonCon=     1 RMS=1.51D-08 Max=8.93D-08 NDo=     1
 LinEq1:  Iter=  5 NonCon=     1 RMS=3.19D-09 Max=3.63D-08 NDo=     1
 LinEq1:  Iter=  6 NonCon=     1 RMS=1.02D-09 Max=1.15D-08 NDo=     1
 LinEq1:  Iter=  7 NonCon=     0 RMS=2.65D-10 Max=1.83D-09 NDo=     1
 Linear equations converged to 4.534D-10 4.534D-09 after     7 iterations.
 LinEq1:  Iter=  0 NonCon=     1 RMS=5.65D-07 Max=4.43D-06 NDo=     1
 LinEq1:  Iter=  1 NonCon=     1 RMS=1.31D-07 Max=1.12D-06 NDo=     1
 LinEq1:  Iter=  2 NonCon=     1 RMS=7.47D-08 Max=5.00D-07 NDo=     1
 LinEq1:  Iter=  3 NonCon=     1 RMS=4.41D-08 Max=5.21D-07 NDo=     1
 LinEq1:  Iter=  4 NonCon=     1 RMS=1.63D-08 Max=1.39D-07 NDo=     1
 LinEq1:  Iter=  5 NonCon=     1 RMS=3.36D-09 Max=2.11D-08 NDo=     1
 LinEq1:  Iter=  6 NonCon=     1 RMS=5.49D-10 Max=3.97D-09 NDo=     1
 LinEq1:  Iter=  7 NonCon=     0 RMS=1.49D-10 Max=1.06D-09 NDo=     1
 Linear equations converged to 3.517D-10 3.517D-09 after     7 iterations.
 Incorrect curvature in search direction -- initial direction reversed.
     Minimum is close to point  3 DX= -7.88D-04 DF= -1.42D-14 DXR=  2.25D-02 DFR=  1.87D-03 which will be used.
 LinEq1:  Iter=  0 NonCon=     1 RMS=5.96D-07 Max=4.47D-06 NDo=     1
 LinEq1:  Iter=  1 NonCon=     1 RMS=1.54D-07 Max=1.34D-06 NDo=     1
 LinEq1:  Iter=  2 NonCon=     1 RMS=8.83D-08 Max=6.03D-07 NDo=     1
 LinEq1:  Iter=  3 NonCon=     1 RMS=4.68D-08 Max=5.64D-07 NDo=     1
 LinEq1:  Iter=  4 NonCon=     1 RMS=1.89D-08 Max=1.65D-07 NDo=     1
 LinEq1:  Iter=  5 NonCon=     1 RMS=5.90D-09 Max=5.95D-08 NDo=     1
 LinEq1:  Iter=  6 NonCon=     1 RMS=1.67D-09 Max=1.34D-08 NDo=     1
 LinEq1:  Iter=  7 NonCon=     0 RMS=2.80D-10 Max=1.82D-09 NDo=     1
 Linear equations converged to 3.962D-10 3.962D-09 after     7 iterations.
 LinEq1:  Iter=  0 NonCon=     1 RMS=5.77D-07 Max=4.56D-06 NDo=     1
 LinEq1:  Iter=  1 NonCon=     1 RMS=1.25D-07 Max=9.78D-07 NDo=     1
 LinEq1:  Iter=  2 NonCon=     1 RMS=6.00D-08 Max=4.43D-07 NDo=     1
 LinEq1:  Iter=  3 NonCon=     1 RMS=4.15D-08 Max=4.56D-07 NDo=     1
 LinEq1:  Iter=  4 NonCon=     1 RMS=1.73D-08 Max=1.54D-07 NDo=     1
 LinEq1:  Iter=  5 NonCon=     1 RMS=4.64D-09 Max=4.28D-08 NDo=     1
 LinEq1:  Iter=  6 NonCon=     1 RMS=1.20D-09 Max=8.13D-09 NDo=     1
 LinEq1:  Iter=  7 NonCon=     0 RMS=1.69D-10 Max=9.10D-10 NDo=     1
 Linear equations converged to 3.218D-10 3.218D-09 after     7 iterations.
 Incorrect curvature in search direction -- initial direction reversed.
     Minimum is close to point  3 DX= -9.37D-04 DF= -4.26D-14 DXR=  8.29D-02 DFR=  5.30D-03 which will be used.
 LinEq1:  Iter=  0 NonCon=     1 RMS=5.92D-07 Max=4.61D-06 NDo=     1
 LinEq1:  Iter=  1 NonCon=     1 RMS=1.41D-07 Max=1.19D-06 NDo=     1
 LinEq1:  Iter=  2 NonCon=     1 RMS=7.88D-08 Max=5.14D-07 NDo=     1
 LinEq1:  Iter=  3 NonCon=     1 RMS=4.58D-08 Max=5.35D-07 NDo=     1
 LinEq1:  Iter=  4 NonCon=     1 RMS=1.84D-08 Max=1.60D-07 NDo=     1
 LinEq1:  Iter=  5 NonCon=     1 RMS=5.49D-09 Max=5.33D-08 NDo=     1
 LinEq1:  Iter=  6 NonCon=     1 RMS=1.53D-09 Max=1.18D-08 NDo=     1
 LinEq1:  Iter=  7 NonCon=     0 RMS=2.48D-10 Max=1.55D-09 NDo=     1
 Linear equations converged to 3.635D-10 3.635D-09 after     7 iterations.
 LinEq1:  Iter=  0 NonCon=     1 RMS=5.79D-07 Max=4.63D-06 NDo=     1
 LinEq1:  Iter=  1 NonCon=     1 RMS=1.25D-07 Max=9.69D-07 NDo=     1
 LinEq1:  Iter=  2 NonCon=     1 RMS=5.98D-08 Max=4.41D-07 NDo=     1
 LinEq1:  Iter=  3 NonCon=     1 RMS=4.15D-08 Max=4.54D-07 NDo=     1
 LinEq1:  Iter=  4 NonCon=     1 RMS=1.73D-08 Max=1.55D-07 NDo=     1
 LinEq1:  Iter=  5 NonCon=     1 RMS=4.56D-09 Max=4.15D-08 NDo=     1
 LinEq1:  Iter=  6 NonCon=     1 RMS=1.21D-09 Max=8.51D-09 NDo=     1
 LinEq1:  Iter=  7 NonCon=     0 RMS=1.75D-10 Max=9.48D-10 NDo=     1
 Linear equations converged to 3.216D-10 3.216D-09 after     7 iterations.
 Incorrect curvature in search direction -- initial direction reversed.
     Minimum is close to point  3 DX= -3.81D-04 DF= -1.42D-14 DXR=  3.16D-02 DFR=  3.58D-03 which will be used.
 LinEq1:  Iter=  0 NonCon=     1 RMS=5.90D-07 Max=4.66D-06 NDo=     1
 LinEq1:  Iter=  1 NonCon=     1 RMS=1.36D-07 Max=1.11D-06 NDo=     1
 LinEq1:  Iter=  2 NonCon=     1 RMS=7.31D-08 Max=4.82D-07 NDo=     1
 LinEq1:  Iter=  3 NonCon=     1 RMS=4.49D-08 Max=5.16D-07 NDo=     1
 LinEq1:  Iter=  4 NonCon=     1 RMS=1.81D-08 Max=1.60D-07 NDo=     1
 LinEq1:  Iter=  5 NonCon=     1 RMS=5.21D-09 Max=4.94D-08 NDo=     1
 LinEq1:  Iter=  6 NonCon=     1 RMS=1.44D-09 Max=1.10D-08 NDo=     1
 LinEq1:  Iter=  7 NonCon=     0 RMS=2.29D-10 Max=1.39D-09 NDo=     1
 Linear equations converged to 3.494D-10 3.494D-09 after     7 iterations.
 LinEq1:  Iter=  0 NonCon=     1 RMS=2.58D-06 Max=1.52D-05 NDo=     1
 LinEq1:  Iter=  1 NonCon=     1 RMS=9.50D-07 Max=7.24D-06 NDo=     1
 LinEq1:  Iter=  2 NonCon=     1 RMS=4.67D-07 Max=3.67D-06 NDo=     1
 LinEq1:  Iter=  3 NonCon=     1 RMS=9.59D-08 Max=1.03D-06 NDo=     1
 LinEq1:  Iter=  4 NonCon=     1 RMS=4.60D-08 Max=5.07D-07 NDo=     1
 LinEq1:  Iter=  5 NonCon=     1 RMS=1.78D-08 Max=1.72D-07 NDo=     1
 LinEq1:  Iter=  6 NonCon=     1 RMS=5.22D-09 Max=3.25D-08 NDo=     1
 LinEq1:  Iter=  7 NonCon=     0 RMS=8.52D-10 Max=1.00D-08 NDo=     1
 Linear equations converged to 1.640D-09 1.640D-08 after     7 iterations.
     Accept linear search using points  1 and  2.
 LinEq1:  Iter=  0 NonCon=     1 RMS=7.59D-07 Max=8.57D-06 NDo=     1
 LinEq1:  Iter=  1 NonCon=     1 RMS=1.30D-07 Max=6.29D-07 NDo=     1
 LinEq1:  Iter=  2 NonCon=     1 RMS=3.93D-08 Max=3.75D-07 NDo=     1
 LinEq1:  Iter=  3 NonCon=     1 RMS=1.73D-08 Max=1.69D-07 NDo=     1
 LinEq1:  Iter=  4 NonCon=     1 RMS=1.38D-08 Max=1.19D-07 NDo=     1
 LinEq1:  Iter=  5 NonCon=     1 RMS=1.82D-09 Max=1.25D-08 NDo=     1
 LinEq1:  Iter=  6 NonCon=     0 RMS=3.75D-10 Max=2.76D-09 NDo=     1
 Linear equations converged to 5.438D-10 5.438D-09 after     6 iterations.
 LinEq1:  Iter=  0 NonCon=     1 RMS=9.32D-07 Max=6.84D-06 NDo=     1
 LinEq1:  Iter=  1 NonCon=     1 RMS=2.52D-07 Max=1.85D-06 NDo=     1
 LinEq1:  Iter=  2 NonCon=     1 RMS=3.97D-08 Max=4.67D-07 NDo=     1
 LinEq1:  Iter=  3 NonCon=     1 RMS=2.17D-08 Max=2.12D-07 NDo=     1
 LinEq1:  Iter=  4 NonCon=     1 RMS=1.44D-08 Max=7.85D-08 NDo=     1
 LinEq1:  Iter=  5 NonCon=     1 RMS=3.17D-09 Max=2.35D-08 NDo=     1
 LinEq1:  Iter=  6 NonCon=     1 RMS=6.25D-10 Max=5.86D-09 NDo=     1
 LinEq1:  Iter=  7 NonCon=     0 RMS=1.18D-10 Max=1.32D-09 NDo=     1
 Linear equations converged to 5.394D-10 5.394D-09 after     7 iterations.
 Incorrect curvature in search direction -- initial direction reversed.
 LinEq1:  Iter=  0 NonCon=     1 RMS=9.49D-07 Max=6.92D-06 NDo=     1
 LinEq1:  Iter=  1 NonCon=     1 RMS=2.57D-07 Max=1.84D-06 NDo=     1
 LinEq1:  Iter=  2 NonCon=     1 RMS=4.06D-08 Max=4.68D-07 NDo=     1
 LinEq1:  Iter=  3 NonCon=     1 RMS=2.39D-08 Max=2.36D-07 NDo=     1
 LinEq1:  Iter=  4 NonCon=     1 RMS=1.59D-08 Max=9.18D-08 NDo=     1
 LinEq1:  Iter=  5 NonCon=     1 RMS=2.87D-09 Max=2.08D-08 NDo=     1
 LinEq1:  Iter=  6 NonCon=     0 RMS=5.09D-10 Max=3.83D-09 NDo=     1
 Linear equations converged to 5.784D-10 5.784D-09 after     6 iterations.
 LinEq1:  Iter=  0 NonCon=     1 RMS=9.59D-07 Max=7.27D-06 NDo=     1
 LinEq1:  Iter=  1 NonCon=     1 RMS=2.66D-07 Max=2.40D-06 NDo=     1
 LinEq1:  Iter=  2 NonCon=     1 RMS=4.61D-08 Max=4.63D-07 NDo=     1
 LinEq1:  Iter=  3 NonCon=     1 RMS=1.67D-08 Max=1.95D-07 NDo=     1
 LinEq1:  Iter=  4 NonCon=     1 RMS=7.59D-09 Max=5.30D-08 NDo=     1
 LinEq1:  Iter=  5 NonCon=     1 RMS=4.51D-09 Max=3.22D-08 NDo=     1
 LinEq1:  Iter=  6 NonCon=     1 RMS=6.50D-10 Max=7.36D-09 NDo=     1
 LinEq1:  Iter=  7 NonCon=     0 RMS=1.09D-10 Max=1.38D-09 NDo=     1
 Linear equations converged to 3.047D-10 3.047D-09 after     7 iterations.
 Incorrect curvature in search direction -- initial direction reversed.
     Minimum is close to point  3 DX= -9.16D-04 DF= -2.84D-14 DXR=  1.29D-02 DFR=  6.35D-03 which will be used.
 LinEq1:  Iter=  0 NonCon=     1 RMS=1.03D-06 Max=7.78D-06 NDo=     1
 LinEq1:  Iter=  1 NonCon=     1 RMS=2.85D-07 Max=2.53D-06 NDo=     1
 LinEq1:  Iter=  2 NonCon=     1 RMS=4.81D-08 Max=4.64D-07 NDo=     1
 LinEq1:  Iter=  3 NonCon=     1 RMS=1.71D-08 Max=2.07D-07 NDo=     1
 LinEq1:  Iter=  4 NonCon=     1 RMS=5.10D-09 Max=3.28D-08 NDo=     1
 LinEq1:  Iter=  5 NonCon=     1 RMS=2.86D-09 Max=1.91D-08 NDo=     1
 LinEq1:  Iter=  6 NonCon=     1 RMS=5.18D-10 Max=3.61D-09 NDo=     1
 LinEq1:  Iter=  7 NonCon=     0 RMS=6.23D-11 Max=5.42D-10 NDo=     1
 Linear equations converged to 3.701D-10 3.701D-09 after     7 iterations.
 Incorrect curvature in search direction -- initial direction reversed.
 LinEq1:  Iter=  0 NonCon=     1 RMS=1.62D-06 Max=9.53D-06 NDo=     1
 LinEq1:  Iter=  1 NonCon=     1 RMS=4.93D-07 Max=3.91D-06 NDo=     1
 LinEq1:  Iter=  2 NonCon=     1 RMS=1.15D-07 Max=6.16D-07 NDo=     1
 LinEq1:  Iter=  3 NonCon=     1 RMS=6.61D-08 Max=6.34D-07 NDo=     1
 LinEq1:  Iter=  4 NonCon=     1 RMS=3.73D-08 Max=4.36D-07 NDo=     1
 LinEq1:  Iter=  5 NonCon=     1 RMS=1.07D-08 Max=6.70D-08 NDo=     1
 LinEq1:  Iter=  6 NonCon=     1 RMS=3.15D-09 Max=2.25D-08 NDo=     1
 LinEq1:  Iter=  7 NonCon=     0 RMS=1.41D-10 Max=8.47D-10 NDo=     1
 Linear equations converged to 6.490D-10 6.490D-09 after     7 iterations.
 LinEq1:  Iter=  0 NonCon=     1 RMS=1.18D-06 Max=7.57D-06 NDo=     1
 LinEq1:  Iter=  1 NonCon=     1 RMS=3.59D-07 Max=3.04D-06 NDo=     1
 LinEq1:  Iter=  2 NonCon=     1 RMS=8.20D-08 Max=4.99D-07 NDo=     1
 LinEq1:  Iter=  3 NonCon=     1 RMS=5.33D-08 Max=5.60D-07 NDo=     1
 LinEq1:  Iter=  4 NonCon=     1 RMS=3.08D-08 Max=3.15D-07 NDo=     1
 LinEq1:  Iter=  5 NonCon=     1 RMS=8.72D-09 Max=5.78D-08 NDo=     1
 LinEq1:  Iter=  6 NonCon=     1 RMS=2.51D-09 Max=1.61D-08 NDo=     1
 LinEq1:  Iter=  7 NonCon=     0 RMS=1.05D-10 Max=8.17D-10 NDo=     1
 Linear equations converged to 4.379D-10 4.379D-09 after     7 iterations.
 LinEq1:  Iter=  0 NonCon=     1 RMS=1.02D-06 Max=6.76D-06 NDo=     1
 LinEq1:  Iter=  1 NonCon=     1 RMS=3.13D-07 Max=2.71D-06 NDo=     1
 LinEq1:  Iter=  2 NonCon=     1 RMS=7.28D-08 Max=4.97D-07 NDo=     1
 LinEq1:  Iter=  3 NonCon=     1 RMS=4.93D-08 Max=5.30D-07 NDo=     1
 LinEq1:  Iter=  4 NonCon=     1 RMS=2.80D-08 Max=2.68D-07 NDo=     1
 LinEq1:  Iter=  5 NonCon=     1 RMS=7.93D-09 Max=5.35D-08 NDo=     1
 LinEq1:  Iter=  6 NonCon=     1 RMS=2.25D-09 Max=1.39D-08 NDo=     1
 LinEq1:  Iter=  7 NonCon=     0 RMS=9.92D-11 Max=8.80D-10 NDo=     1
 Linear equations converged to 2.664D-10 2.664D-09 after     7 iterations.
 Incorrect curvature in search direction -- initial direction reversed.
 LinEq1:  Iter=  0 NonCon=     1 RMS=1.50D-06 Max=1.00D-05 NDo=     1
 LinEq1:  Iter=  1 NonCon=     1 RMS=4.57D-07 Max=3.78D-06 NDo=     1
 LinEq1:  Iter=  2 NonCon=     1 RMS=9.99D-08 Max=5.07D-07 NDo=     1
 LinEq1:  Iter=  3 NonCon=     1 RMS=6.09D-08 Max=5.89D-07 NDo=     1
 LinEq1:  Iter=  4 NonCon=     1 RMS=3.57D-08 Max=4.06D-07 NDo=     1
 LinEq1:  Iter=  5 NonCon=     1 RMS=1.04D-08 Max=6.55D-08 NDo=     1
 LinEq1:  Iter=  6 NonCon=     1 RMS=3.01D-09 Max=2.02D-08 NDo=     1
 LinEq1:  Iter=  7 NonCon=     0 RMS=1.18D-10 Max=7.34D-10 NDo=     1
 Linear equations converged to 3.698D-10 3.698D-09 after     7 iterations.
 LinEq1:  Iter=  0 NonCon=     1 RMS=1.41D-06 Max=9.90D-06 NDo=     1
 LinEq1:  Iter=  1 NonCon=     1 RMS=4.34D-07 Max=3.61D-06 NDo=     1
 LinEq1:  Iter=  2 NonCon=     1 RMS=1.02D-07 Max=5.07D-07 NDo=     1
 LinEq1:  Iter=  3 NonCon=     1 RMS=6.23D-08 Max=6.17D-07 NDo=     1
 LinEq1:  Iter=  4 NonCon=     1 RMS=3.48D-08 Max=3.91D-07 NDo=     1
 LinEq1:  Iter=  5 NonCon=     1 RMS=1.00D-08 Max=6.45D-08 NDo=     1
 LinEq1:  Iter=  6 NonCon=     1 RMS=2.91D-09 Max=1.91D-08 NDo=     1
 LinEq1:  Iter=  7 NonCon=     0 RMS=9.93D-11 Max=6.26D-10 NDo=     1
 Linear equations converged to 3.532D-10 3.532D-09 after     7 iterations.
 Incorrect curvature in search direction -- initial direction reversed.
 LinEq1:  Iter=  0 NonCon=     1 RMS=2.33D-06 Max=1.29D-05 NDo=     1
 LinEq1:  Iter=  1 NonCon=     1 RMS=6.82D-07 Max=5.40D-06 NDo=     1
 LinEq1:  Iter=  2 NonCon=     1 RMS=1.50D-07 Max=8.50D-07 NDo=     1
 LinEq1:  Iter=  3 NonCon=     1 RMS=8.21D-08 Max=6.30D-07 NDo=     1
 LinEq1:  Iter=  4 NonCon=     1 RMS=4.47D-08 Max=5.80D-07 NDo=     1
 LinEq1:  Iter=  5 NonCon=     1 RMS=1.44D-08 Max=8.89D-08 NDo=     1
 LinEq1:  Iter=  6 NonCon=     1 RMS=4.04D-09 Max=3.04D-08 NDo=     1
 LinEq1:  Iter=  7 NonCon=     0 RMS=1.87D-10 Max=1.60D-09 NDo=     1
 Linear equations converged to 5.332D-10 5.332D-09 after     7 iterations.
 LinEq1:  Iter=  0 NonCon=     1 RMS=2.27D-06 Max=1.33D-05 NDo=     1
 LinEq1:  Iter=  1 NonCon=     1 RMS=6.72D-07 Max=5.35D-06 NDo=     1
 LinEq1:  Iter=  2 NonCon=     1 RMS=1.61D-07 Max=8.22D-07 NDo=     1
 LinEq1:  Iter=  3 NonCon=     1 RMS=8.72D-08 Max=6.68D-07 NDo=     1
 LinEq1:  Iter=  4 NonCon=     1 RMS=4.45D-08 Max=5.76D-07 NDo=     1
 LinEq1:  Iter=  5 NonCon=     1 RMS=1.44D-08 Max=8.45D-08 NDo=     1
 LinEq1:  Iter=  6 NonCon=     1 RMS=4.18D-09 Max=2.99D-08 NDo=     1
 LinEq1:  Iter=  7 NonCon=     0 RMS=1.66D-10 Max=1.45D-09 NDo=     1
 Linear equations converged to 5.199D-10 5.199D-09 after     7 iterations.
 Incorrect curvature in search direction -- initial direction reversed.
 LinEq1:  Iter=  0 NonCon=     1 RMS=5.30D-06 Max=3.76D-05 NDo=     1
 LinEq1:  Iter=  1 NonCon=     1 RMS=1.26D-06 Max=1.15D-05 NDo=     1
 LinEq1:  Iter=  2 NonCon=     1 RMS=2.49D-07 Max=1.97D-06 NDo=     1
 LinEq1:  Iter=  3 NonCon=     1 RMS=8.39D-08 Max=6.41D-07 NDo=     1
 LinEq1:  Iter=  4 NonCon=     1 RMS=5.15D-08 Max=6.51D-07 NDo=     1
 LinEq1:  Iter=  5 NonCon=     1 RMS=3.08D-08 Max=3.20D-07 NDo=     1
 LinEq1:  Iter=  6 NonCon=     1 RMS=3.56D-09 Max=3.11D-08 NDo=     1
 LinEq1:  Iter=  7 NonCon=     0 RMS=5.86D-10 Max=3.97D-09 NDo=     1
 Linear equations converged to 1.640D-09 1.640D-08 after     7 iterations.
     Minimum is close to point  3 DX=  7.95D-03 DF= -1.44D-12 DXR=  2.58D-02 DFR=  6.72D-04 which will be used.
 LinEq1:  Iter=  0 NonCon=     1 RMS=3.98D-06 Max=2.51D-05 NDo=     1
 LinEq1:  Iter=  1 NonCon=     1 RMS=1.04D-06 Max=1.01D-05 NDo=     1
 LinEq1:  Iter=  2 NonCon=     1 RMS=4.07D-07 Max=2.41D-06 NDo=     1
 LinEq1:  Iter=  3 NonCon=     1 RMS=2.06D-07 Max=1.86D-06 NDo=     1
 LinEq1:  Iter=  4 NonCon=     1 RMS=6.53D-08 Max=6.12D-07 NDo=     1
 LinEq1:  Iter=  5 NonCon=     1 RMS=2.92D-08 Max=3.43D-07 NDo=     1
 LinEq1:  Iter=  6 NonCon=     1 RMS=1.15D-08 Max=1.42D-07 NDo=     1
 LinEq1:  Iter=  7 NonCon=     0 RMS=7.94D-10 Max=4.53D-09 NDo=     1
 Linear equations converged to 1.640D-09 1.640D-08 after     7 iterations.
     Minimum is close to point  2 DX=  5.65D-02 DF= -1.86D-11 DXR=  5.35D-02 DFR=  2.87D-03 which will be used.
 LinEq1:  Iter=  0 NonCon=     1 RMS=7.49D-07 Max=4.27D-06 NDo=     1
 LinEq1:  Iter=  1 NonCon=     1 RMS=3.36D-07 Max=2.53D-06 NDo=     1
 LinEq1:  Iter=  2 NonCon=     1 RMS=8.99D-08 Max=8.23D-07 NDo=     1
 LinEq1:  Iter=  3 NonCon=     1 RMS=4.05D-08 Max=5.04D-07 NDo=     1
 LinEq1:  Iter=  4 NonCon=     1 RMS=1.30D-08 Max=1.18D-07 NDo=     1
 LinEq1:  Iter=  5 NonCon=     1 RMS=2.45D-09 Max=2.11D-08 NDo=     1
 LinEq1:  Iter=  6 NonCon=     0 RMS=4.65D-10 Max=4.49D-09 NDo=     1
 Linear equations converged to 9.273D-10 9.273D-09 after     6 iterations.
 Incorrect curvature in search direction -- initial direction reversed.
 Search did not lower the energy significantly.
 No lower point found -- switch to scaled steepest descent.
     Accept linear search using points  1 and  2.
     Minimum is close to point  2 DX= -8.34D-02 DF= -5.56D-12 DXR=  9.10D-02 DFR=  8.34D-03 which will be used.
 LinEq1:  Iter=  0 NonCon=     1 RMS=3.36D-07 Max=2.51D-06 NDo=     1
 LinEq1:  Iter=  1 NonCon=     1 RMS=8.99D-08 Max=8.22D-07 NDo=     1
 LinEq1:  Iter=  2 NonCon=     1 RMS=4.14D-08 Max=5.09D-07 NDo=     1
 LinEq1:  Iter=  3 NonCon=     1 RMS=1.41D-08 Max=1.21D-07 NDo=     1
 LinEq1:  Iter=  4 NonCon=     1 RMS=2.46D-09 Max=2.08D-08 NDo=     1
 LinEq1:  Iter=  5 NonCon=     1 RMS=5.26D-10 Max=4.67D-09 NDo=     1
 LinEq1:  Iter=  6 NonCon=     1 RMS=1.22D-10 Max=9.89D-10 NDo=     1
 LinEq1:  Iter=  7 NonCon=     0 RMS=2.26D-11 Max=1.89D-10 NDo=     1
 Linear equations converged to 1.205D-10 1.205D-09 after     7 iterations.
 Incorrect curvature in search direction -- initial direction reversed.
     Minimum is close to point  2 DX= -6.90D-02 DF= -9.25D-12 DXR=  7.42D-02 DFR=  5.52D-03 which will be used.
 LinEq1:  Iter=  0 NonCon=     1 RMS=9.58D-07 Max=7.62D-06 NDo=     1
 LinEq1:  Iter=  1 NonCon=     1 RMS=6.51D-07 Max=4.69D-06 NDo=     1
 LinEq1:  Iter=  2 NonCon=     1 RMS=1.18D-07 Max=7.72D-07 NDo=     1
 LinEq1:  Iter=  3 NonCon=     1 RMS=4.69D-08 Max=5.83D-07 NDo=     1
 LinEq1:  Iter=  4 NonCon=     1 RMS=2.52D-08 Max=2.05D-07 NDo=     1
 LinEq1:  Iter=  5 NonCon=     1 RMS=2.97D-09 Max=1.68D-08 NDo=     1
 LinEq1:  Iter=  6 NonCon=     0 RMS=3.08D-10 Max=2.47D-09 NDo=     1
 Linear equations converged to 1.183D-09 1.183D-08 after     6 iterations.
 LinEq1:  Iter=  0 NonCon=     1 RMS=6.75D-07 Max=4.58D-06 NDo=     1
 LinEq1:  Iter=  1 NonCon=     1 RMS=4.57D-07 Max=3.17D-06 NDo=     1
 LinEq1:  Iter=  2 NonCon=     1 RMS=1.52D-07 Max=1.38D-06 NDo=     1
 LinEq1:  Iter=  3 NonCon=     1 RMS=4.01D-08 Max=4.27D-07 NDo=     1
 LinEq1:  Iter=  4 NonCon=     1 RMS=2.36D-08 Max=2.65D-07 NDo=     1
 LinEq1:  Iter=  5 NonCon=     1 RMS=6.08D-09 Max=3.98D-08 NDo=     1
 LinEq1:  Iter=  6 NonCon=     1 RMS=1.06D-09 Max=8.97D-09 NDo=     1
 LinEq1:  Iter=  7 NonCon=     0 RMS=1.34D-10 Max=9.03D-10 NDo=     1
 Linear equations converged to 3.780D-10 3.780D-09 after     7 iterations.
 LinEq1:  Iter=  0 NonCon=     1 RMS=6.90D-07 Max=4.56D-06 NDo=     1
 LinEq1:  Iter=  1 NonCon=     1 RMS=4.83D-07 Max=3.27D-06 NDo=     1
 LinEq1:  Iter=  2 NonCon=     1 RMS=1.62D-07 Max=1.52D-06 NDo=     1
 LinEq1:  Iter=  3 NonCon=     1 RMS=4.09D-08 Max=4.33D-07 NDo=     1
 LinEq1:  Iter=  4 NonCon=     1 RMS=2.42D-08 Max=2.70D-07 NDo=     1
 LinEq1:  Iter=  5 NonCon=     1 RMS=6.76D-09 Max=3.98D-08 NDo=     1
 LinEq1:  Iter=  6 NonCon=     1 RMS=7.17D-10 Max=5.24D-09 NDo=     1
 LinEq1:  Iter=  7 NonCon=     0 RMS=6.14D-11 Max=5.52D-10 NDo=     1
 Linear equations converged to 4.804D-10 4.804D-09 after     7 iterations.
 LinEq1:  Iter=  0 NonCon=     1 RMS=1.02D-06 Max=7.23D-06 NDo=     1
 LinEq1:  Iter=  1 NonCon=     1 RMS=4.34D-07 Max=3.45D-06 NDo=     1
 LinEq1:  Iter=  2 NonCon=     1 RMS=2.16D-07 Max=1.62D-06 NDo=     1
 LinEq1:  Iter=  3 NonCon=     1 RMS=5.89D-08 Max=5.03D-07 NDo=     1
 LinEq1:  Iter=  4 NonCon=     1 RMS=2.59D-08 Max=3.25D-07 NDo=     1
 LinEq1:  Iter=  5 NonCon=     1 RMS=9.41D-09 Max=9.00D-08 NDo=     1
 LinEq1:  Iter=  6 NonCon=     1 RMS=2.80D-09 Max=1.97D-08 NDo=     1
 LinEq1:  Iter=  7 NonCon=     0 RMS=1.95D-10 Max=1.76D-09 NDo=     1
 Linear equations converged to 6.124D-10 6.124D-09 after     7 iterations.
 LinEq1:  Iter=  0 NonCon=     1 RMS=9.00D-07 Max=8.11D-06 NDo=     1
 LinEq1:  Iter=  1 NonCon=     1 RMS=1.94D-07 Max=1.48D-06 NDo=     1
 LinEq1:  Iter=  2 NonCon=     1 RMS=9.63D-08 Max=8.62D-07 NDo=     1
 LinEq1:  Iter=  3 NonCon=     1 RMS=3.30D-08 Max=4.57D-07 NDo=     1
 LinEq1:  Iter=  4 NonCon=     1 RMS=1.11D-08 Max=9.45D-08 NDo=     1
 LinEq1:  Iter=  5 NonCon=     1 RMS=3.32D-09 Max=3.85D-08 NDo=     1
 LinEq1:  Iter=  6 NonCon=     1 RMS=8.89D-10 Max=8.05D-09 NDo=     1
 LinEq1:  Iter=  7 NonCon=     0 RMS=1.87D-10 Max=1.46D-09 NDo=     1
 Linear equations converged to 5.214D-10 5.214D-09 after     7 iterations.
 LinEq1:  Iter=  0 NonCon=     1 RMS=9.45D-07 Max=6.17D-06 NDo=     1
 LinEq1:  Iter=  1 NonCon=     1 RMS=2.67D-07 Max=1.96D-06 NDo=     1
 LinEq1:  Iter=  2 NonCon=     1 RMS=1.47D-07 Max=1.04D-06 NDo=     1
 LinEq1:  Iter=  3 NonCon=     1 RMS=5.41D-08 Max=5.25D-07 NDo=     1
 LinEq1:  Iter=  4 NonCon=     1 RMS=2.58D-08 Max=2.88D-07 NDo=     1
 LinEq1:  Iter=  5 NonCon=     1 RMS=1.00D-08 Max=1.05D-07 NDo=     1
 LinEq1:  Iter=  6 NonCon=     1 RMS=3.09D-09 Max=2.58D-08 NDo=     1
 LinEq1:  Iter=  7 NonCon=     0 RMS=2.94D-10 Max=1.78D-09 NDo=     1
 Linear equations converged to 6.061D-10 6.061D-09 after     7 iterations.
 LinEq1:  Iter=  0 NonCon=     1 RMS=8.16D-07 Max=4.68D-06 NDo=     1
 LinEq1:  Iter=  1 NonCon=     1 RMS=2.78D-07 Max=2.23D-06 NDo=     1
 LinEq1:  Iter=  2 NonCon=     1 RMS=1.45D-07 Max=9.79D-07 NDo=     1
 LinEq1:  Iter=  3 NonCon=     1 RMS=4.68D-08 Max=5.28D-07 NDo=     1
 LinEq1:  Iter=  4 NonCon=     1 RMS=2.52D-08 Max=2.53D-07 NDo=     1
 LinEq1:  Iter=  5 NonCon=     1 RMS=7.64D-09 Max=7.89D-08 NDo=     1
 LinEq1:  Iter=  6 NonCon=     1 RMS=2.28D-09 Max=1.76D-08 NDo=     1
 LinEq1:  Iter=  7 NonCon=     0 RMS=1.94D-10 Max=1.65D-09 NDo=     1
 Linear equations converged to 6.650D-10 6.650D-09 after     7 iterations.
 LinEq1:  Iter=  0 NonCon=     1 RMS=8.17D-07 Max=4.30D-06 NDo=     1
 LinEq1:  Iter=  1 NonCon=     1 RMS=2.95D-07 Max=2.40D-06 NDo=     1
 LinEq1:  Iter=  2 NonCon=     1 RMS=1.48D-07 Max=9.91D-07 NDo=     1
 LinEq1:  Iter=  3 NonCon=     1 RMS=4.61D-08 Max=5.30D-07 NDo=     1
 LinEq1:  Iter=  4 NonCon=     1 RMS=2.55D-08 Max=2.53D-07 NDo=     1
 LinEq1:  Iter=  5 NonCon=     1 RMS=7.19D-09 Max=7.38D-08 NDo=     1
 LinEq1:  Iter=  6 NonCon=     1 RMS=2.09D-09 Max=1.70D-08 NDo=     1
 LinEq1:  Iter=  7 NonCon=     0 RMS=1.47D-10 Max=1.28D-09 NDo=     1
 Linear equations converged to 6.713D-10 6.713D-09 after     7 iterations.
 LinEq1:  Iter=  0 NonCon=     1 RMS=8.16D-07 Max=4.32D-06 NDo=     1
 LinEq1:  Iter=  1 NonCon=     1 RMS=2.93D-07 Max=2.39D-06 NDo=     1
 LinEq1:  Iter=  2 NonCon=     1 RMS=1.48D-07 Max=9.89D-07 NDo=     1
 LinEq1:  Iter=  3 NonCon=     1 RMS=4.61D-08 Max=5.30D-07 NDo=     1
 LinEq1:  Iter=  4 NonCon=     1 RMS=2.54D-08 Max=2.53D-07 NDo=     1
 LinEq1:  Iter=  5 NonCon=     1 RMS=7.20D-09 Max=7.40D-08 NDo=     1
 LinEq1:  Iter=  6 NonCon=     1 RMS=2.10D-09 Max=1.70D-08 NDo=     1
 LinEq1:  Iter=  7 NonCon=     0 RMS=1.50D-10 Max=1.30D-09 NDo=     1
 Linear equations converged to 6.712D-10 6.712D-09 after     7 iterations.
 Search did not lower the energy significantly.
 No lower point found -- try reversing direction.
 Search did not lower the energy significantly.
 No lower point found -- switch to scaled steepest descent.
     Accept linear search using points  1 and  2.
     Minimum is close to point  2 DX= -2.24D-02 DF= -3.13D-13 DXR=  2.29D-02 DFR=  5.34D-04 which will be used.
 LinEq1:  Iter=  0 NonCon=     1 RMS=2.97D-07 Max=2.59D-06 NDo=     1
 LinEq1:  Iter=  1 NonCon=     1 RMS=1.61D-07 Max=1.35D-06 NDo=     1
 LinEq1:  Iter=  2 NonCon=     1 RMS=4.87D-08 Max=5.06D-07 NDo=     1
 LinEq1:  Iter=  3 NonCon=     1 RMS=2.91D-08 Max=3.25D-07 NDo=     1
 LinEq1:  Iter=  4 NonCon=     1 RMS=7.21D-09 Max=7.34D-08 NDo=     1
 LinEq1:  Iter=  5 NonCon=     1 RMS=2.33D-09 Max=1.96D-08 NDo=     1
 LinEq1:  Iter=  6 NonCon=     1 RMS=1.63D-10 Max=1.46D-09 NDo=     1
 LinEq1:  Iter=  7 NonCon=     0 RMS=9.78D-12 Max=8.20D-11 NDo=     1
 Linear equations converged to 9.011D-11 9.011D-10 after     7 iterations.
 LinEq1:  Iter=  0 NonCon=     1 RMS=4.96D-07 Max=4.76D-06 NDo=     1
 LinEq1:  Iter=  1 NonCon=     1 RMS=2.91D-07 Max=2.91D-06 NDo=     1
 LinEq1:  Iter=  2 NonCon=     1 RMS=6.64D-08 Max=5.28D-07 NDo=     1
 LinEq1:  Iter=  3 NonCon=     1 RMS=2.75D-08 Max=3.48D-07 NDo=     1
 LinEq1:  Iter=  4 NonCon=     1 RMS=1.21D-08 Max=1.14D-07 NDo=     1
 LinEq1:  Iter=  5 NonCon=     1 RMS=3.53D-09 Max=3.58D-08 NDo=     1
 LinEq1:  Iter=  6 NonCon=     1 RMS=6.60D-10 Max=4.37D-09 NDo=     1
 LinEq1:  Iter=  7 NonCon=     0 RMS=1.17D-10 Max=9.84D-10 NDo=     1
 Linear equations converged to 4.736D-10 4.736D-09 after     7 iterations.
 LinEq1:  Iter=  0 NonCon=     1 RMS=5.63D-07 Max=3.41D-06 NDo=     1
 LinEq1:  Iter=  1 NonCon=     1 RMS=2.70D-07 Max=2.53D-06 NDo=     1
 LinEq1:  Iter=  2 NonCon=     1 RMS=1.00D-07 Max=8.64D-07 NDo=     1
 LinEq1:  Iter=  3 NonCon=     1 RMS=3.21D-08 Max=4.25D-07 NDo=     1
 LinEq1:  Iter=  4 NonCon=     1 RMS=1.54D-08 Max=1.24D-07 NDo=     1
 LinEq1:  Iter=  5 NonCon=     1 RMS=3.45D-09 Max=3.50D-08 NDo=     1
 LinEq1:  Iter=  6 NonCon=     1 RMS=1.07D-09 Max=1.15D-08 NDo=     1
 LinEq1:  Iter=  7 NonCon=     0 RMS=1.74D-10 Max=1.64D-09 NDo=     1
 Linear equations converged to 4.531D-10 4.531D-09 after     7 iterations.
 LinEq1:  Iter=  0 NonCon=     1 RMS=5.22D-07 Max=3.06D-06 NDo=     1
 LinEq1:  Iter=  1 NonCon=     1 RMS=2.77D-07 Max=2.39D-06 NDo=     1
 LinEq1:  Iter=  2 NonCon=     1 RMS=9.86D-08 Max=7.99D-07 NDo=     1
 LinEq1:  Iter=  3 NonCon=     1 RMS=3.08D-08 Max=4.07D-07 NDo=     1
 LinEq1:  Iter=  4 NonCon=     1 RMS=1.57D-08 Max=1.24D-07 NDo=     1
 LinEq1:  Iter=  5 NonCon=     1 RMS=3.31D-09 Max=3.64D-08 NDo=     1
 LinEq1:  Iter=  6 NonCon=     1 RMS=1.14D-09 Max=1.12D-08 NDo=     1
 LinEq1:  Iter=  7 NonCon=     0 RMS=1.07D-10 Max=8.37D-10 NDo=     1
 Linear equations converged to 5.717D-10 5.717D-09 after     7 iterations.
 LinEq1:  Iter=  0 NonCon=     1 RMS=5.01D-07 Max=2.83D-06 NDo=     1
 LinEq1:  Iter=  1 NonCon=     1 RMS=2.91D-07 Max=2.47D-06 NDo=     1
 LinEq1:  Iter=  2 NonCon=     1 RMS=9.51D-08 Max=7.27D-07 NDo=     1
 LinEq1:  Iter=  3 NonCon=     1 RMS=2.97D-08 Max=4.03D-07 NDo=     1
 LinEq1:  Iter=  4 NonCon=     1 RMS=1.52D-08 Max=1.13D-07 NDo=     1
 LinEq1:  Iter=  5 NonCon=     1 RMS=2.36D-09 Max=2.11D-08 NDo=     1
 LinEq1:  Iter=  6 NonCon=     0 RMS=6.89D-10 Max=7.00D-09 NDo=     1
 Linear equations converged to 7.192D-10 7.192D-09 after     6 iterations.
 LinEq1:  Iter=  0 NonCon=     1 RMS=5.54D-07 Max=5.62D-06 NDo=     1
 LinEq1:  Iter=  1 NonCon=     1 RMS=1.81D-07 Max=1.58D-06 NDo=     1
 LinEq1:  Iter=  2 NonCon=     1 RMS=7.25D-08 Max=4.97D-07 NDo=     1
 LinEq1:  Iter=  3 NonCon=     1 RMS=2.40D-08 Max=3.06D-07 NDo=     1
 LinEq1:  Iter=  4 NonCon=     1 RMS=1.43D-08 Max=1.34D-07 NDo=     1
 LinEq1:  Iter=  5 NonCon=     1 RMS=4.06D-09 Max=2.13D-08 NDo=     1
 LinEq1:  Iter=  6 NonCon=     1 RMS=7.72D-10 Max=4.26D-09 NDo=     1
 LinEq1:  Iter=  7 NonCon=     0 RMS=2.39D-11 Max=1.94D-10 NDo=     1
 Linear equations converged to 2.746D-10 2.746D-09 after     7 iterations.
 QCLLim is confused:  Bigger=T Turned=T
 NLin=  3 IMin12=  1  2 I12=  0  2 IX=  1 XLMin= 0.000D+00 XLMax= 0.000D+00
 X = 0.000D+00 1.000D+00 2.000D+00
 DE= 0.000D+00 4.346D-11 5.247D-09
 LinEq1:  Iter=  0 NonCon=     1 RMS=5.51D-07 Max=4.03D-06 NDo=     1
 LinEq1:  Iter=  1 NonCon=     1 RMS=1.55D-07 Max=1.14D-06 NDo=     1
 LinEq1:  Iter=  2 NonCon=     1 RMS=1.06D-07 Max=6.47D-07 NDo=     1
 LinEq1:  Iter=  3 NonCon=     1 RMS=3.19D-08 Max=2.56D-07 NDo=     1
 LinEq1:  Iter=  4 NonCon=     1 RMS=1.44D-08 Max=1.91D-07 NDo=     1
 LinEq1:  Iter=  5 NonCon=     1 RMS=4.72D-09 Max=3.45D-08 NDo=     1
 LinEq1:  Iter=  6 NonCon=     1 RMS=9.79D-10 Max=5.25D-09 NDo=     1
 LinEq1:  Iter=  7 NonCon=     0 RMS=1.40D-10 Max=8.61D-10 NDo=     1
 Linear equations converged to 9.753D-10 9.753D-09 after     7 iterations.
 Incorrect curvature in search direction -- initial direction reversed.
 Search did not lower the energy significantly.
 No lower point found -- switch to scaled steepest descent.
     Accept linear search using points  1 and  2.
     Minimum is close to point  2 DX= -1.60D-02 DF= -8.53D-14 DXR=  1.63D-02 DFR=  2.84D-04 which will be used.
 LinEq1:  Iter=  0 NonCon=     1 RMS=1.66D-07 Max=1.33D-06 NDo=     1
 LinEq1:  Iter=  1 NonCon=     1 RMS=1.15D-07 Max=7.11D-07 NDo=     1
 LinEq1:  Iter=  2 NonCon=     1 RMS=3.21D-08 Max=2.52D-07 NDo=     1
 LinEq1:  Iter=  3 NonCon=     1 RMS=1.55D-08 Max=2.03D-07 NDo=     1
 LinEq1:  Iter=  4 NonCon=     1 RMS=5.50D-09 Max=4.40D-08 NDo=     1
 LinEq1:  Iter=  5 NonCon=     1 RMS=1.16D-09 Max=7.23D-09 NDo=     1
 LinEq1:  Iter=  6 NonCon=     1 RMS=1.40D-10 Max=8.81D-10 NDo=     1
 LinEq1:  Iter=  7 NonCon=     0 RMS=1.80D-11 Max=1.17D-10 NDo=     1
 Linear equations converged to 6.112D-11 6.112D-10 after     7 iterations.
 LinEq1:  Iter=  0 NonCon=     1 RMS=3.10D-07 Max=1.70D-06 NDo=     1
 LinEq1:  Iter=  1 NonCon=     1 RMS=1.96D-07 Max=1.53D-06 NDo=     1
 LinEq1:  Iter=  2 NonCon=     1 RMS=7.80D-08 Max=6.49D-07 NDo=     1
 LinEq1:  Iter=  3 NonCon=     1 RMS=2.08D-08 Max=2.40D-07 NDo=     1
 LinEq1:  Iter=  4 NonCon=     1 RMS=9.97D-09 Max=9.75D-08 NDo=     1
 LinEq1:  Iter=  5 NonCon=     1 RMS=3.55D-09 Max=3.04D-08 NDo=     1
 LinEq1:  Iter=  6 NonCon=     0 RMS=7.96D-10 Max=5.40D-09 NDo=     1
 Linear equations converged to 8.298D-10 8.298D-09 after     6 iterations.
 LinEq1:  Iter=  0 NonCon=     1 RMS=2.57D-07 Max=1.74D-06 NDo=     1
 LinEq1:  Iter=  1 NonCon=     1 RMS=7.17D-08 Max=4.79D-07 NDo=     1
 LinEq1:  Iter=  2 NonCon=     1 RMS=3.54D-08 Max=2.52D-07 NDo=     1
 LinEq1:  Iter=  3 NonCon=     1 RMS=2.04D-08 Max=2.39D-07 NDo=     1
 LinEq1:  Iter=  4 NonCon=     1 RMS=1.03D-08 Max=8.70D-08 NDo=     1
 LinEq1:  Iter=  5 NonCon=     1 RMS=3.35D-09 Max=3.22D-08 NDo=     1
 LinEq1:  Iter=  6 NonCon=     1 RMS=7.32D-10 Max=4.27D-09 NDo=     1
 LinEq1:  Iter=  7 NonCon=     0 RMS=7.02D-11 Max=5.08D-10 NDo=     1
 Linear equations converged to 3.481D-10 3.481D-09 after     7 iterations.
 LinEq1:  Iter=  0 NonCon=     1 RMS=2.54D-07 Max=1.70D-06 NDo=     1
 LinEq1:  Iter=  1 NonCon=     1 RMS=8.12D-08 Max=6.31D-07 NDo=     1
 LinEq1:  Iter=  2 NonCon=     1 RMS=4.25D-08 Max=3.04D-07 NDo=     1
 LinEq1:  Iter=  3 NonCon=     1 RMS=2.14D-08 Max=2.61D-07 NDo=     1
 LinEq1:  Iter=  4 NonCon=     1 RMS=1.05D-08 Max=8.33D-08 NDo=     1
 LinEq1:  Iter=  5 NonCon=     1 RMS=2.92D-09 Max=2.88D-08 NDo=     1
 LinEq1:  Iter=  6 NonCon=     1 RMS=7.43D-10 Max=4.43D-09 NDo=     1
 LinEq1:  Iter=  7 NonCon=     0 RMS=3.84D-11 Max=3.09D-10 NDo=     1
 Linear equations converged to 4.579D-10 4.579D-09 after     7 iterations.
 LinEq1:  Iter=  0 NonCon=     1 RMS=3.26D-07 Max=2.33D-06 NDo=     1
 LinEq1:  Iter=  1 NonCon=     1 RMS=1.05D-07 Max=8.70D-07 NDo=     1
 LinEq1:  Iter=  2 NonCon=     1 RMS=4.60D-08 Max=3.50D-07 NDo=     1
 LinEq1:  Iter=  3 NonCon=     1 RMS=2.36D-08 Max=2.96D-07 NDo=     1
 LinEq1:  Iter=  4 NonCon=     1 RMS=1.05D-08 Max=7.58D-08 NDo=     1
 LinEq1:  Iter=  5 NonCon=     1 RMS=2.56D-09 Max=1.79D-08 NDo=     1
 LinEq1:  Iter=  6 NonCon=     1 RMS=6.10D-10 Max=5.16D-09 NDo=     1
 LinEq1:  Iter=  7 NonCon=     0 RMS=1.09D-10 Max=8.33D-10 NDo=     1
 Linear equations converged to 5.121D-10 5.121D-09 after     7 iterations.
 Incorrect curvature in search direction -- initial direction reversed.
     Minimum is close to point  3 DX= -1.83D-04 DF= -1.42D-14 DXR=  4.02D-02 DFR=  2.34D-03 which will be used.
 LinEq1:  Iter=  0 NonCon=     1 RMS=3.34D-07 Max=2.30D-06 NDo=     1
 LinEq1:  Iter=  1 NonCon=     1 RMS=8.95D-08 Max=6.71D-07 NDo=     1
 LinEq1:  Iter=  2 NonCon=     1 RMS=4.35D-08 Max=2.98D-07 NDo=     1
 LinEq1:  Iter=  3 NonCon=     1 RMS=2.40D-08 Max=2.77D-07 NDo=     1
 LinEq1:  Iter=  4 NonCon=     1 RMS=1.06D-08 Max=9.39D-08 NDo=     1
 LinEq1:  Iter=  5 NonCon=     1 RMS=3.53D-09 Max=2.99D-08 NDo=     1
 LinEq1:  Iter=  6 NonCon=     1 RMS=7.48D-10 Max=4.30D-09 NDo=     1
 LinEq1:  Iter=  7 NonCon=     0 RMS=1.01D-10 Max=7.24D-10 NDo=     1
 Linear equations converged to 3.884D-10 3.884D-09 after     7 iterations.
 LinEq1:  Iter=  0 NonCon=     1 RMS=3.36D-07 Max=2.22D-06 NDo=     1
 LinEq1:  Iter=  1 NonCon=     1 RMS=7.95D-08 Max=5.64D-07 NDo=     1
 LinEq1:  Iter=  2 NonCon=     1 RMS=3.89D-08 Max=2.75D-07 NDo=     1
 LinEq1:  Iter=  3 NonCon=     1 RMS=2.35D-08 Max=2.61D-07 NDo=     1
 LinEq1:  Iter=  4 NonCon=     1 RMS=1.04D-08 Max=9.89D-08 NDo=     1
 LinEq1:  Iter=  5 NonCon=     1 RMS=3.74D-09 Max=3.18D-08 NDo=     1
 LinEq1:  Iter=  6 NonCon=     1 RMS=6.38D-10 Max=3.89D-09 NDo=     1
 LinEq1:  Iter=  7 NonCon=     0 RMS=8.40D-11 Max=5.26D-10 NDo=     1
 Linear equations converged to 3.079D-10 3.079D-09 after     7 iterations.
 LinEq1:  Iter=  0 NonCon=     1 RMS=6.91D-06 Max=4.37D-05 NDo=     1
 LinEq1:  Iter=  1 NonCon=     1 RMS=2.53D-06 Max=2.03D-05 NDo=     1
 LinEq1:  Iter=  2 NonCon=     1 RMS=1.10D-06 Max=7.96D-06 NDo=     1
 LinEq1:  Iter=  3 NonCon=     1 RMS=1.70D-07 Max=1.15D-06 NDo=     1
 LinEq1:  Iter=  4 NonCon=     1 RMS=5.23D-08 Max=4.06D-07 NDo=     1
 LinEq1:  Iter=  5 NonCon=     1 RMS=1.91D-08 Max=2.40D-07 NDo=     1
 LinEq1:  Iter=  6 NonCon=     1 RMS=7.66D-09 Max=6.40D-08 NDo=     1
 LinEq1:  Iter=  7 NonCon=     1 RMS=1.83D-09 Max=1.65D-08 NDo=     1
 LinEq1:  Iter=  8 NonCon=     0 RMS=9.12D-11 Max=8.17D-10 NDo=     1
 Linear equations converged to 1.640D-09 1.640D-08 after     8 iterations.
     Accept linear search using points  1 and  2.
     Minimum is close to point  2 DX= -3.65D-02 DF= -1.05D-10 DXR=  3.79D-02 DFR=  1.43D-03 which will be used.
 LinEq1:  Iter=  0 NonCon=     1 RMS=1.07D-06 Max=9.28D-06 NDo=     1
 LinEq1:  Iter=  1 NonCon=     1 RMS=1.84D-07 Max=1.28D-06 NDo=     1
 LinEq1:  Iter=  2 NonCon=     1 RMS=4.22D-08 Max=3.34D-07 NDo=     1
 LinEq1:  Iter=  3 NonCon=     1 RMS=2.94D-08 Max=3.56D-07 NDo=     1
 LinEq1:  Iter=  4 NonCon=     1 RMS=1.73D-08 Max=1.28D-07 NDo=     1
 LinEq1:  Iter=  5 NonCon=     1 RMS=5.25D-09 Max=3.59D-08 NDo=     1
 LinEq1:  Iter=  6 NonCon=     0 RMS=7.01D-10 Max=5.71D-09 NDo=     1
 Linear equations converged to 1.332D-09 1.332D-08 after     6 iterations.
     Minimum is close to point  3 DX=  3.66D-02 DF= -4.25D-12 DXR=  8.38D-02 DFR=  7.05D-03 which will be used.
 LinEq1:  Iter=  0 NonCon=     1 RMS=7.47D-07 Max=5.73D-06 NDo=     1
 LinEq1:  Iter=  1 NonCon=     1 RMS=1.70D-07 Max=1.20D-06 NDo=     1
 LinEq1:  Iter=  2 NonCon=     1 RMS=7.57D-08 Max=5.53D-07 NDo=     1
 LinEq1:  Iter=  3 NonCon=     1 RMS=4.18D-08 Max=3.41D-07 NDo=     1
 LinEq1:  Iter=  4 NonCon=     1 RMS=1.80D-08 Max=2.38D-07 NDo=     1
 LinEq1:  Iter=  5 NonCon=     1 RMS=5.74D-09 Max=5.91D-08 NDo=     1
 LinEq1:  Iter=  6 NonCon=     1 RMS=1.62D-09 Max=1.32D-08 NDo=     1
 LinEq1:  Iter=  7 NonCon=     0 RMS=1.21D-10 Max=8.78D-10 NDo=     1
 Linear equations converged to 3.541D-10 3.541D-09 after     7 iterations.
 LinEq1:  Iter=  0 NonCon=     1 RMS=7.15D-07 Max=4.80D-06 NDo=     1
 LinEq1:  Iter=  1 NonCon=     1 RMS=1.80D-07 Max=1.17D-06 NDo=     1
 LinEq1:  Iter=  2 NonCon=     1 RMS=1.01D-07 Max=6.10D-07 NDo=     1
 LinEq1:  Iter=  3 NonCon=     1 RMS=4.39D-08 Max=3.63D-07 NDo=     1
 LinEq1:  Iter=  4 NonCon=     1 RMS=1.82D-08 Max=2.31D-07 NDo=     1
 LinEq1:  Iter=  5 NonCon=     1 RMS=6.33D-09 Max=6.52D-08 NDo=     1
 LinEq1:  Iter=  6 NonCon=     1 RMS=1.88D-09 Max=1.34D-08 NDo=     1
 LinEq1:  Iter=  7 NonCon=     0 RMS=1.99D-10 Max=1.72D-09 NDo=     1
 Linear equations converged to 6.365D-10 6.365D-09 after     7 iterations.
 Incorrect curvature in search direction -- initial direction reversed.
     Minimum is close to point  3 DX=  8.48D-05 DF=  0.00D+00 DXR=  6.32D-03 DFR=  0.00D+00 which will be used.
 LinEq1:  Iter=  0 NonCon=     1 RMS=7.25D-07 Max=4.90D-06 NDo=     1
 LinEq1:  Iter=  1 NonCon=     1 RMS=1.78D-07 Max=1.17D-06 NDo=     1
 LinEq1:  Iter=  2 NonCon=     1 RMS=9.66D-08 Max=6.01D-07 NDo=     1
 LinEq1:  Iter=  3 NonCon=     1 RMS=4.40D-08 Max=3.58D-07 NDo=     1
 LinEq1:  Iter=  4 NonCon=     1 RMS=1.82D-08 Max=2.32D-07 NDo=     1
 LinEq1:  Iter=  5 NonCon=     1 RMS=6.24D-09 Max=6.45D-08 NDo=     1
 LinEq1:  Iter=  6 NonCon=     1 RMS=1.85D-09 Max=1.35D-08 NDo=     1
 LinEq1:  Iter=  7 NonCon=     0 RMS=1.89D-10 Max=1.62D-09 NDo=     1
 Linear equations converged to 5.753D-10 5.753D-09 after     7 iterations.
 Incorrect curvature in search direction -- initial direction reversed.
 Search did not lower the energy significantly.
 No lower point found -- switch to scaled steepest descent.
     Accept linear search using points  1 and  2.
     Minimum is close to point  2 DX= -2.74D-02 DF= -1.99D-13 DXR=  2.82D-02 DFR=  7.90D-04 which will be used.
 LinEq1:  Iter=  0 NonCon=     1 RMS=1.81D-07 Max=1.31D-06 NDo=     1
 LinEq1:  Iter=  1 NonCon=     1 RMS=1.03D-07 Max=6.43D-07 NDo=     1
 LinEq1:  Iter=  2 NonCon=     1 RMS=4.58D-08 Max=3.44D-07 NDo=     1
 LinEq1:  Iter=  3 NonCon=     1 RMS=2.13D-08 Max=2.69D-07 NDo=     1
 LinEq1:  Iter=  4 NonCon=     1 RMS=7.49D-09 Max=5.84D-08 NDo=     1
 LinEq1:  Iter=  5 NonCon=     1 RMS=2.12D-09 Max=1.96D-08 NDo=     1
 LinEq1:  Iter=  6 NonCon=     1 RMS=3.19D-10 Max=3.21D-09 NDo=     1
 LinEq1:  Iter=  7 NonCon=     0 RMS=2.58D-11 Max=2.37D-10 NDo=     1
 Linear equations converged to 5.983D-11 5.983D-10 after     7 iterations.
 LinEq1:  Iter=  0 NonCon=     1 RMS=5.11D-07 Max=3.89D-06 NDo=     1
 LinEq1:  Iter=  1 NonCon=     1 RMS=1.77D-07 Max=1.82D-06 NDo=     1
 LinEq1:  Iter=  2 NonCon=     1 RMS=8.89D-08 Max=7.31D-07 NDo=     1
 LinEq1:  Iter=  3 NonCon=     1 RMS=3.01D-08 Max=3.85D-07 NDo=     1
 LinEq1:  Iter=  4 NonCon=     1 RMS=1.14D-08 Max=9.84D-08 NDo=     1
 LinEq1:  Iter=  5 NonCon=     1 RMS=3.18D-09 Max=3.40D-08 NDo=     1
 LinEq1:  Iter=  6 NonCon=     1 RMS=9.16D-10 Max=1.09D-08 NDo=     1
 LinEq1:  Iter=  7 NonCon=     0 RMS=2.06D-10 Max=1.35D-09 NDo=     1
 Linear equations converged to 6.655D-10 6.655D-09 after     7 iterations.
 Incorrect curvature in search direction -- initial direction reversed.
 LinEq1:  Iter=  0 NonCon=     1 RMS=5.25D-07 Max=4.03D-06 NDo=     1
 LinEq1:  Iter=  1 NonCon=     1 RMS=1.73D-07 Max=1.77D-06 NDo=     1
 LinEq1:  Iter=  2 NonCon=     1 RMS=8.85D-08 Max=7.18D-07 NDo=     1
 LinEq1:  Iter=  3 NonCon=     1 RMS=3.11D-08 Max=3.85D-07 NDo=     1
 LinEq1:  Iter=  4 NonCon=     1 RMS=1.15D-08 Max=1.06D-07 NDo=     1
 LinEq1:  Iter=  5 NonCon=     1 RMS=2.98D-09 Max=2.38D-08 NDo=     1
 LinEq1:  Iter=  6 NonCon=     0 RMS=5.91D-10 Max=6.10D-09 NDo=     1
 Linear equations converged to 6.117D-10 6.117D-09 after     6 iterations.
 LinEq1:  Iter=  0 NonCon=     1 RMS=4.30D-07 Max=4.44D-06 NDo=     1
 LinEq1:  Iter=  1 NonCon=     1 RMS=1.57D-07 Max=1.49D-06 NDo=     1
 LinEq1:  Iter=  2 NonCon=     1 RMS=7.50D-08 Max=5.09D-07 NDo=     1
 LinEq1:  Iter=  3 NonCon=     1 RMS=3.43D-08 Max=3.25D-07 NDo=     1
 LinEq1:  Iter=  4 NonCon=     1 RMS=1.63D-08 Max=1.88D-07 NDo=     1
 LinEq1:  Iter=  5 NonCon=     1 RMS=5.74D-09 Max=3.65D-08 NDo=     1
 LinEq1:  Iter=  6 NonCon=     1 RMS=1.13D-09 Max=7.01D-09 NDo=     1
 LinEq1:  Iter=  7 NonCon=     0 RMS=1.31D-10 Max=1.15D-09 NDo=     1
 Linear equations converged to 4.729D-10 4.729D-09 after     7 iterations.
 LinEq1:  Iter=  0 NonCon=     1 RMS=4.18D-07 Max=4.26D-06 NDo=     1
 LinEq1:  Iter=  1 NonCon=     1 RMS=1.57D-07 Max=1.44D-06 NDo=     1
 LinEq1:  Iter=  2 NonCon=     1 RMS=7.67D-08 Max=5.40D-07 NDo=     1
 LinEq1:  Iter=  3 NonCon=     1 RMS=3.39D-08 Max=3.29D-07 NDo=     1
 LinEq1:  Iter=  4 NonCon=     1 RMS=1.62D-08 Max=1.85D-07 NDo=     1
 LinEq1:  Iter=  5 NonCon=     1 RMS=5.58D-09 Max=3.60D-08 NDo=     1
 LinEq1:  Iter=  6 NonCon=     1 RMS=1.06D-09 Max=6.90D-09 NDo=     1
 LinEq1:  Iter=  7 NonCon=     0 RMS=1.23D-10 Max=1.07D-09 NDo=     1
 Linear equations converged to 5.147D-10 5.147D-09 after     7 iterations.
 LinEq1:  Iter=  0 NonCon=     1 RMS=4.00D-07 Max=3.98D-06 NDo=     1
 LinEq1:  Iter=  1 NonCon=     1 RMS=1.56D-07 Max=1.38D-06 NDo=     1
 LinEq1:  Iter=  2 NonCon=     1 RMS=7.82D-08 Max=5.75D-07 NDo=     1
 LinEq1:  Iter=  3 NonCon=     1 RMS=3.32D-08 Max=3.33D-07 NDo=     1
 LinEq1:  Iter=  4 NonCon=     1 RMS=1.61D-08 Max=1.79D-07 NDo=     1
 LinEq1:  Iter=  5 NonCon=     1 RMS=5.34D-09 Max=3.52D-08 NDo=     1
 LinEq1:  Iter=  6 NonCon=     1 RMS=9.31D-10 Max=6.51D-09 NDo=     1
 LinEq1:  Iter=  7 NonCon=     0 RMS=1.02D-10 Max=8.71D-10 NDo=     1
 Linear equations converged to 5.699D-10 5.699D-09 after     7 iterations.
 LinEq1:  Iter=  0 NonCon=     1 RMS=3.65D-07 Max=3.27D-06 NDo=     1
 LinEq1:  Iter=  1 NonCon=     1 RMS=1.51D-07 Max=1.24D-06 NDo=     1
 LinEq1:  Iter=  2 NonCon=     1 RMS=7.85D-08 Max=6.06D-07 NDo=     1
 LinEq1:  Iter=  3 NonCon=     1 RMS=3.18D-08 Max=3.39D-07 NDo=     1
 LinEq1:  Iter=  4 NonCon=     1 RMS=1.58D-08 Max=1.66D-07 NDo=     1
 LinEq1:  Iter=  5 NonCon=     1 RMS=4.81D-09 Max=3.35D-08 NDo=     1
 LinEq1:  Iter=  6 NonCon=     0 RMS=5.48D-10 Max=4.83D-09 NDo=     1
 Linear equations converged to 6.734D-10 6.734D-09 after     6 iterations.
 QCLLim is confused:  Bigger=T Turned=T
 NLin=  3 IMin12=  1  2 I12=  0  2 IX=  1 XLMin= 0.000D+00 XLMax= 0.000D+00
 X = 0.000D+00 1.000D+00 2.000D+00
 DE= 0.000D+00 2.217D-12 8.175D-10
 LinEq1:  Iter=  0 NonCon=     1 RMS=3.25D-07 Max=2.94D-06 NDo=     1
 LinEq1:  Iter=  1 NonCon=     1 RMS=7.00D-08 Max=4.68D-07 NDo=     1
 LinEq1:  Iter=  2 NonCon=     1 RMS=1.96D-08 Max=2.18D-07 NDo=     1
 LinEq1:  Iter=  3 NonCon=     1 RMS=1.53D-08 Max=1.63D-07 NDo=     1
 LinEq1:  Iter=  4 NonCon=     1 RMS=6.22D-09 Max=6.10D-08 NDo=     1
 LinEq1:  Iter=  5 NonCon=     1 RMS=2.22D-09 Max=2.55D-08 NDo=     1
 LinEq1:  Iter=  6 NonCon=     1 RMS=3.98D-10 Max=2.43D-09 NDo=     1
 LinEq1:  Iter=  7 NonCon=     0 RMS=3.97D-11 Max=2.20D-10 NDo=     1
 Linear equations converged to 1.324D-10 1.324D-09 after     7 iterations.
 LinEq1:  Iter=  0 NonCon=     1 RMS=5.47D-07 Max=4.17D-06 NDo=     1
 LinEq1:  Iter=  1 NonCon=     1 RMS=1.25D-07 Max=9.54D-07 NDo=     1
 LinEq1:  Iter=  2 NonCon=     1 RMS=6.10D-08 Max=5.44D-07 NDo=     1
 LinEq1:  Iter=  3 NonCon=     1 RMS=2.66D-08 Max=3.64D-07 NDo=     1
 LinEq1:  Iter=  4 NonCon=     1 RMS=1.16D-08 Max=7.72D-08 NDo=     1
 LinEq1:  Iter=  5 NonCon=     1 RMS=3.44D-09 Max=2.80D-08 NDo=     1
 LinEq1:  Iter=  6 NonCon=     1 RMS=5.18D-10 Max=4.34D-09 NDo=     1
 LinEq1:  Iter=  7 NonCon=     0 RMS=1.14D-10 Max=8.48D-10 NDo=     1
 Linear equations converged to 4.908D-10 4.908D-09 after     7 iterations.
 LinEq1:  Iter=  0 NonCon=     1 RMS=5.25D-07 Max=3.97D-06 NDo=     1
 LinEq1:  Iter=  1 NonCon=     1 RMS=1.44D-07 Max=1.14D-06 NDo=     1
 LinEq1:  Iter=  2 NonCon=     1 RMS=7.59D-08 Max=6.06D-07 NDo=     1
 LinEq1:  Iter=  3 NonCon=     1 RMS=2.84D-08 Max=3.26D-07 NDo=     1
 LinEq1:  Iter=  4 NonCon=     1 RMS=1.33D-08 Max=1.29D-07 NDo=     1
 LinEq1:  Iter=  5 NonCon=     1 RMS=5.17D-09 Max=5.87D-08 NDo=     1
 LinEq1:  Iter=  6 NonCon=     1 RMS=1.37D-09 Max=1.05D-08 NDo=     1
 LinEq1:  Iter=  7 NonCon=     0 RMS=1.59D-10 Max=1.55D-09 NDo=     1
 Linear equations converged to 6.214D-10 6.214D-09 after     7 iterations.
 Incorrect curvature in search direction -- initial direction reversed.
     Minimum is close to point  3 DX=  2.65D-03 DF= -1.71D-13 DXR=  6.20D-02 DFR=  3.43D-02 which will be used.
 LinEq1:  Iter=  0 NonCon=     1 RMS=5.51D-07 Max=4.16D-06 NDo=     1
 LinEq1:  Iter=  1 NonCon=     1 RMS=1.36D-07 Max=9.71D-07 NDo=     1
 LinEq1:  Iter=  2 NonCon=     1 RMS=7.17D-08 Max=5.47D-07 NDo=     1
 LinEq1:  Iter=  3 NonCon=     1 RMS=2.98D-08 Max=3.22D-07 NDo=     1
 LinEq1:  Iter=  4 NonCon=     1 RMS=1.33D-08 Max=1.37D-07 NDo=     1
 LinEq1:  Iter=  5 NonCon=     1 RMS=5.57D-09 Max=6.20D-08 NDo=     1
 LinEq1:  Iter=  6 NonCon=     1 RMS=1.33D-09 Max=9.05D-09 NDo=     1
 LinEq1:  Iter=  7 NonCon=     0 RMS=1.64D-10 Max=1.47D-09 NDo=     1
 Linear equations converged to 5.151D-10 5.151D-09 after     7 iterations.
 Incorrect curvature in search direction -- initial direction reversed.
 LinEq1:  Iter=  0 NonCon=     1 RMS=5.68D-07 Max=4.28D-06 NDo=     1
 LinEq1:  Iter=  1 NonCon=     1 RMS=1.30D-07 Max=9.69D-07 NDo=     1
 LinEq1:  Iter=  2 NonCon=     1 RMS=6.57D-08 Max=4.71D-07 NDo=     1
 LinEq1:  Iter=  3 NonCon=     1 RMS=3.04D-08 Max=3.15D-07 NDo=     1
 LinEq1:  Iter=  4 NonCon=     1 RMS=1.33D-08 Max=1.42D-07 NDo=     1
 LinEq1:  Iter=  5 NonCon=     1 RMS=5.76D-09 Max=6.32D-08 NDo=     1
 LinEq1:  Iter=  6 NonCon=     1 RMS=1.23D-09 Max=7.88D-09 NDo=     1
 LinEq1:  Iter=  7 NonCon=     0 RMS=1.55D-10 Max=1.28D-09 NDo=     1
 Linear equations converged to 4.284D-10 4.284D-09 after     7 iterations.
 Incorrect curvature in search direction -- initial direction reversed.
 LinEq1:  Iter=  0 NonCon=     1 RMS=2.52D-06 Max=2.46D-05 NDo=     1
 LinEq1:  Iter=  1 NonCon=     1 RMS=7.53D-07 Max=5.56D-06 NDo=     1
 LinEq1:  Iter=  2 NonCon=     1 RMS=4.02D-07 Max=3.02D-06 NDo=     1
 LinEq1:  Iter=  3 NonCon=     1 RMS=1.09D-07 Max=7.43D-07 NDo=     1
 LinEq1:  Iter=  4 NonCon=     1 RMS=2.70D-08 Max=2.79D-07 NDo=     1
 LinEq1:  Iter=  5 NonCon=     1 RMS=1.19D-08 Max=1.36D-07 NDo=     1
 LinEq1:  Iter=  6 NonCon=     1 RMS=3.73D-09 Max=3.65D-08 NDo=     1
 LinEq1:  Iter=  7 NonCon=     0 RMS=1.04D-09 Max=7.75D-09 NDo=     1
 Linear equations converged to 1.640D-09 1.640D-08 after     7 iterations.
     Minimum is close to point  2 DX=  5.14D-02 DF= -1.46D-11 DXR=  4.89D-02 DFR=  2.40D-03 which will be used.
 LinEq1:  Iter=  0 NonCon=     1 RMS=2.74D-07 Max=2.04D-06 NDo=     1
 LinEq1:  Iter=  1 NonCon=     1 RMS=1.04D-07 Max=7.95D-07 NDo=     1
 LinEq1:  Iter=  2 NonCon=     1 RMS=5.11D-08 Max=3.79D-07 NDo=     1
 LinEq1:  Iter=  3 NonCon=     1 RMS=2.76D-08 Max=3.36D-07 NDo=     1
 LinEq1:  Iter=  4 NonCon=     1 RMS=1.16D-08 Max=8.66D-08 NDo=     1
 LinEq1:  Iter=  5 NonCon=     1 RMS=2.83D-09 Max=2.28D-08 NDo=     1
 LinEq1:  Iter=  6 NonCon=     1 RMS=5.16D-10 Max=3.55D-09 NDo=     1
 LinEq1:  Iter=  7 NonCon=     0 RMS=1.02D-10 Max=9.92D-10 NDo=     1
 Linear equations converged to 4.599D-10 4.599D-09 after     7 iterations.
 LinEq1:  Iter=  0 NonCon=     1 RMS=2.73D-07 Max=1.62D-06 NDo=     1
 LinEq1:  Iter=  1 NonCon=     1 RMS=1.16D-07 Max=9.70D-07 NDo=     1
 LinEq1:  Iter=  2 NonCon=     1 RMS=5.51D-08 Max=4.22D-07 NDo=     1
 LinEq1:  Iter=  3 NonCon=     1 RMS=2.71D-08 Max=3.52D-07 NDo=     1
 LinEq1:  Iter=  4 NonCon=     1 RMS=1.21D-08 Max=7.85D-08 NDo=     1
 LinEq1:  Iter=  5 NonCon=     1 RMS=1.18D-09 Max=1.04D-08 NDo=     1
 LinEq1:  Iter=  6 NonCon=     0 RMS=2.98D-10 Max=1.49D-09 NDo=     1
 Linear equations converged to 5.626D-10 5.626D-09 after     6 iterations.
 LinEq1:  Iter=  0 NonCon=     1 RMS=2.91D-07 Max=1.45D-06 NDo=     1
 LinEq1:  Iter=  1 NonCon=     1 RMS=9.50D-08 Max=7.45D-07 NDo=     1
 LinEq1:  Iter=  2 NonCon=     1 RMS=5.00D-08 Max=3.31D-07 NDo=     1
 LinEq1:  Iter=  3 NonCon=     1 RMS=2.45D-08 Max=3.00D-07 NDo=     1
 LinEq1:  Iter=  4 NonCon=     1 RMS=1.19D-08 Max=1.11D-07 NDo=     1
 LinEq1:  Iter=  5 NonCon=     1 RMS=4.40D-09 Max=4.44D-08 NDo=     1
 LinEq1:  Iter=  6 NonCon=     1 RMS=8.56D-10 Max=4.73D-09 NDo=     1
 LinEq1:  Iter=  7 NonCon=     0 RMS=2.45D-11 Max=2.84D-10 NDo=     1
 Linear equations converged to 3.688D-10 3.688D-09 after     7 iterations.
 LinEq1:  Iter=  0 NonCon=     1 RMS=5.26D-07 Max=4.69D-06 NDo=     1
 LinEq1:  Iter=  1 NonCon=     1 RMS=1.58D-07 Max=1.64D-06 NDo=     1
 LinEq1:  Iter=  2 NonCon=     1 RMS=1.15D-07 Max=1.13D-06 NDo=     1
 LinEq1:  Iter=  3 NonCon=     1 RMS=6.46D-08 Max=4.70D-07 NDo=     1
 LinEq1:  Iter=  4 NonCon=     1 RMS=1.29D-08 Max=1.16D-07 NDo=     1
 LinEq1:  Iter=  5 NonCon=     1 RMS=4.59D-09 Max=4.85D-08 NDo=     1
 LinEq1:  Iter=  6 NonCon=     1 RMS=8.90D-10 Max=5.61D-09 NDo=     1
 LinEq1:  Iter=  7 NonCon=     0 RMS=1.80D-10 Max=1.25D-09 NDo=     1
 Linear equations converged to 4.503D-10 4.503D-09 after     7 iterations.
 LinEq1:  Iter=  0 NonCon=     1 RMS=2.79D-08 Max=1.93D-07 NDo=     1
 LinEq1:  Iter=  1 NonCon=     1 RMS=1.40D-08 Max=1.51D-07 NDo=     1
 LinEq1:  Iter=  2 NonCon=     1 RMS=1.21D-08 Max=1.11D-07 NDo=     1
 LinEq1:  Iter=  3 NonCon=     1 RMS=4.82D-09 Max=3.13D-08 NDo=     1
 LinEq1:  Iter=  4 NonCon=     1 RMS=1.22D-09 Max=1.18D-08 NDo=     1
 LinEq1:  Iter=  5 NonCon=     1 RMS=2.95D-10 Max=2.70D-09 NDo=     1
 LinEq1:  Iter=  6 NonCon=     1 RMS=5.34D-11 Max=2.86D-10 NDo=     1
 LinEq1:  Iter=  7 NonCon=     0 RMS=1.29D-11 Max=1.16D-10 NDo=     1
 Linear equations converged to 4.321D-11 4.321D-10 after     7 iterations.
 LinEq1:  Iter=  0 NonCon=     1 RMS=1.73D-07 Max=1.62D-06 NDo=     1
 LinEq1:  Iter=  1 NonCon=     1 RMS=1.01D-07 Max=1.13D-06 NDo=     1
 LinEq1:  Iter=  2 NonCon=     1 RMS=5.29D-08 Max=5.21D-07 NDo=     1
 LinEq1:  Iter=  3 NonCon=     1 RMS=2.10D-08 Max=1.67D-07 NDo=     1
 LinEq1:  Iter=  4 NonCon=     1 RMS=4.30D-09 Max=2.99D-08 NDo=     1
 LinEq1:  Iter=  5 NonCon=     1 RMS=1.12D-09 Max=1.05D-08 NDo=     1
 LinEq1:  Iter=  6 NonCon=     1 RMS=2.81D-10 Max=1.83D-09 NDo=     1
 LinEq1:  Iter=  7 NonCon=     0 RMS=8.98D-11 Max=1.13D-09 NDo=     1
 Linear equations converged to 1.881D-10 1.881D-09 after     7 iterations.
 LinEq1:  Iter=  0 NonCon=     1 RMS=1.39D-08 Max=1.75D-07 NDo=     1
 LinEq1:  Iter=  1 NonCon=     1 RMS=7.79D-09 Max=7.32D-08 NDo=     1
 LinEq1:  Iter=  2 NonCon=     1 RMS=4.65D-09 Max=3.73D-08 NDo=     1
 LinEq1:  Iter=  3 NonCon=     1 RMS=1.73D-09 Max=1.49D-08 NDo=     1
 LinEq1:  Iter=  4 NonCon=     1 RMS=3.82D-10 Max=2.06D-09 NDo=     1
 LinEq1:  Iter=  5 NonCon=     1 RMS=5.63D-11 Max=4.11D-10 NDo=     1
 LinEq1:  Iter=  6 NonCon=     1 RMS=1.62D-11 Max=1.31D-10 NDo=     1
 LinEq1:  Iter=  7 NonCon=     0 RMS=7.34D-12 Max=7.76D-11 NDo=     1
 Linear equations converged to 1.400D-11 1.400D-10 after     7 iterations.
 LinEq1:  Iter=  0 NonCon=     1 RMS=1.35D-07 Max=1.43D-06 NDo=     1
 LinEq1:  Iter=  1 NonCon=     1 RMS=8.69D-08 Max=9.04D-07 NDo=     1
 LinEq1:  Iter=  2 NonCon=     1 RMS=3.59D-08 Max=2.78D-07 NDo=     1
 LinEq1:  Iter=  3 NonCon=     1 RMS=1.39D-08 Max=1.03D-07 NDo=     1
 LinEq1:  Iter=  4 NonCon=     1 RMS=4.85D-09 Max=4.49D-08 NDo=     1
 LinEq1:  Iter=  5 NonCon=     1 RMS=1.12D-09 Max=7.66D-09 NDo=     1
 LinEq1:  Iter=  6 NonCon=     1 RMS=2.04D-10 Max=1.22D-09 NDo=     1
 LinEq1:  Iter=  7 NonCon=     0 RMS=7.14D-11 Max=1.01D-09 NDo=     1
 Linear equations converged to 1.343D-10 1.343D-09 after     7 iterations.
 LinEq1:  Iter=  0 NonCon=     1 RMS=1.12D-08 Max=1.57D-07 NDo=     1
 LinEq1:  Iter=  1 NonCon=     1 RMS=6.04D-09 Max=4.72D-08 NDo=     1
 LinEq1:  Iter=  2 NonCon=     1 RMS=2.54D-09 Max=1.87D-08 NDo=     1
 LinEq1:  Iter=  3 NonCon=     1 RMS=9.35D-10 Max=9.76D-09 NDo=     1
 LinEq1:  Iter=  4 NonCon=     1 RMS=2.23D-10 Max=2.17D-09 NDo=     1
 LinEq1:  Iter=  5 NonCon=     1 RMS=4.90D-11 Max=3.46D-10 NDo=     1
 LinEq1:  Iter=  6 NonCon=     1 RMS=1.01D-11 Max=9.67D-11 NDo=     1
 LinEq1:  Iter=  7 NonCon=     0 RMS=6.06D-12 Max=6.70D-11 NDo=     1
 Linear equations converged to 7.632D-12 7.632D-11 after     7 iterations.
 LinEq1:  Iter=  0 NonCon=     1 RMS=1.44D-07 Max=1.60D-06 NDo=     1
 LinEq1:  Iter=  1 NonCon=     1 RMS=9.51D-08 Max=9.66D-07 NDo=     1
 LinEq1:  Iter=  2 NonCon=     1 RMS=3.16D-08 Max=2.88D-07 NDo=     1
 LinEq1:  Iter=  3 NonCon=     1 RMS=1.36D-08 Max=9.44D-08 NDo=     1
 LinEq1:  Iter=  4 NonCon=     1 RMS=4.45D-09 Max=3.72D-08 NDo=     1
 LinEq1:  Iter=  5 NonCon=     1 RMS=7.84D-10 Max=5.89D-09 NDo=     1
 LinEq1:  Iter=  6 NonCon=     1 RMS=1.78D-10 Max=1.15D-09 NDo=     1
 LinEq1:  Iter=  7 NonCon=     0 RMS=6.60D-11 Max=9.26D-10 NDo=     1
 Linear equations converged to 1.200D-10 1.200D-09 after     7 iterations.
 LinEq1:  Iter=  0 NonCon=     1 RMS=9.95D-09 Max=1.39D-07 NDo=     1
 LinEq1:  Iter=  1 NonCon=     1 RMS=5.38D-09 Max=4.27D-08 NDo=     1
 LinEq1:  Iter=  2 NonCon=     1 RMS=2.23D-09 Max=1.98D-08 NDo=     1
 LinEq1:  Iter=  3 NonCon=     1 RMS=8.66D-10 Max=5.59D-09 NDo=     1
 LinEq1:  Iter=  4 NonCon=     1 RMS=2.03D-10 Max=1.88D-09 NDo=     1
 LinEq1:  Iter=  5 NonCon=     1 RMS=4.55D-11 Max=3.88D-10 NDo=     1
 LinEq1:  Iter=  6 NonCon=     1 RMS=1.11D-11 Max=7.26D-11 NDo=     1
 LinEq1:  Iter=  7 NonCon=     0 RMS=4.82D-12 Max=5.95D-11 NDo=     1
 Linear equations converged to 6.285D-12 6.285D-11 after     7 iterations.
 LinEq1:  Iter=  0 NonCon=     1 RMS=2.27D-07 Max=2.39D-06 NDo=     1
 LinEq1:  Iter=  1 NonCon=     1 RMS=1.26D-07 Max=1.32D-06 NDo=     1
 LinEq1:  Iter=  2 NonCon=     1 RMS=5.65D-08 Max=5.87D-07 NDo=     1
 LinEq1:  Iter=  3 NonCon=     1 RMS=2.35D-08 Max=1.86D-07 NDo=     1
 LinEq1:  Iter=  4 NonCon=     1 RMS=6.83D-09 Max=5.85D-08 NDo=     1
 LinEq1:  Iter=  5 NonCon=     1 RMS=1.62D-09 Max=1.32D-08 NDo=     1
 LinEq1:  Iter=  6 NonCon=     1 RMS=2.89D-10 Max=2.16D-09 NDo=     1
 LinEq1:  Iter=  7 NonCon=     0 RMS=7.63D-11 Max=7.28D-10 NDo=     1
 Linear equations converged to 1.907D-10 1.907D-09 after     7 iterations.
 LinEq1:  Iter=  0 NonCon=     1 RMS=1.20D-08 Max=1.15D-07 NDo=     1
 LinEq1:  Iter=  1 NonCon=     1 RMS=7.33D-09 Max=8.55D-08 NDo=     1
 LinEq1:  Iter=  2 NonCon=     1 RMS=4.26D-09 Max=3.46D-08 NDo=     1
 LinEq1:  Iter=  3 NonCon=     1 RMS=1.81D-09 Max=1.83D-08 NDo=     1
 LinEq1:  Iter=  4 NonCon=     1 RMS=4.06D-10 Max=2.12D-09 NDo=     1
 LinEq1:  Iter=  5 NonCon=     1 RMS=5.38D-11 Max=3.56D-10 NDo=     1
 LinEq1:  Iter=  6 NonCon=     1 RMS=1.55D-11 Max=1.48D-10 NDo=     1
 LinEq1:  Iter=  7 NonCon=     0 RMS=4.79D-12 Max=3.29D-11 NDo=     1
 Linear equations converged to 1.375D-11 1.375D-10 after     7 iterations.
 LinEq1:  Iter=  0 NonCon=     1 RMS=2.00D-07 Max=1.43D-06 NDo=     1
 LinEq1:  Iter=  1 NonCon=     1 RMS=7.95D-08 Max=8.92D-07 NDo=     1
 LinEq1:  Iter=  2 NonCon=     1 RMS=5.28D-08 Max=4.34D-07 NDo=     1
 LinEq1:  Iter=  3 NonCon=     1 RMS=2.61D-08 Max=1.67D-07 NDo=     1
 LinEq1:  Iter=  4 NonCon=     1 RMS=1.01D-08 Max=9.09D-08 NDo=     1
 LinEq1:  Iter=  5 NonCon=     1 RMS=1.86D-09 Max=1.07D-08 NDo=     1
 LinEq1:  Iter=  6 NonCon=     1 RMS=2.72D-10 Max=1.86D-09 NDo=     1
 LinEq1:  Iter=  7 NonCon=     0 RMS=7.91D-11 Max=5.83D-10 NDo=     1
 Linear equations converged to 1.986D-10 1.986D-09 after     7 iterations.
 LinEq1:  Iter=  0 NonCon=     1 RMS=1.39D-08 Max=1.02D-07 NDo=     1
 LinEq1:  Iter=  1 NonCon=     1 RMS=7.82D-09 Max=9.73D-08 NDo=     1
 LinEq1:  Iter=  2 NonCon=     1 RMS=4.16D-09 Max=3.78D-08 NDo=     1
 LinEq1:  Iter=  3 NonCon=     1 RMS=2.03D-09 Max=1.85D-08 NDo=     1
 LinEq1:  Iter=  4 NonCon=     1 RMS=4.31D-10 Max=2.30D-09 NDo=     1
 LinEq1:  Iter=  5 NonCon=     1 RMS=6.11D-11 Max=4.85D-10 NDo=     1
 LinEq1:  Iter=  6 NonCon=     1 RMS=1.93D-11 Max=1.89D-10 NDo=     1
 LinEq1:  Iter=  7 NonCon=     0 RMS=6.57D-12 Max=5.89D-11 NDo=     1
 Linear equations converged to 1.338D-11 1.338D-10 after     7 iterations.
 LinEq1:  Iter=  0 NonCon=     1 RMS=8.25D-08 Max=6.96D-07 NDo=     1
 LinEq1:  Iter=  1 NonCon=     1 RMS=4.46D-08 Max=4.95D-07 NDo=     1
 LinEq1:  Iter=  2 NonCon=     1 RMS=2.60D-08 Max=2.35D-07 NDo=     1
 LinEq1:  Iter=  3 NonCon=     1 RMS=1.16D-08 Max=8.86D-08 NDo=     1
 LinEq1:  Iter=  4 NonCon=     1 RMS=3.60D-09 Max=3.32D-08 NDo=     1
 LinEq1:  Iter=  5 NonCon=     1 RMS=6.95D-10 Max=4.15D-09 NDo=     1
 LinEq1:  Iter=  6 NonCon=     1 RMS=1.04D-10 Max=6.05D-10 NDo=     1
 LinEq1:  Iter=  7 NonCon=     0 RMS=4.60D-11 Max=5.62D-10 NDo=     1
 Linear equations converged to 8.207D-11 8.207D-10 after     7 iterations.
 LinEq1:  Iter=  0 NonCon=     1 RMS=8.27D-09 Max=1.01D-07 NDo=     1
 LinEq1:  Iter=  1 NonCon=     1 RMS=5.42D-09 Max=5.53D-08 NDo=     1
 LinEq1:  Iter=  2 NonCon=     1 RMS=1.98D-09 Max=1.97D-08 NDo=     1
 LinEq1:  Iter=  3 NonCon=     1 RMS=7.94D-10 Max=6.44D-09 NDo=     1
 LinEq1:  Iter=  4 NonCon=     1 RMS=1.80D-10 Max=1.02D-09 NDo=     1
 LinEq1:  Iter=  5 NonCon=     1 RMS=3.01D-11 Max=2.48D-10 NDo=     1
 LinEq1:  Iter=  6 NonCon=     1 RMS=1.12D-11 Max=1.06D-10 NDo=     1
 LinEq1:  Iter=  7 NonCon=     0 RMS=5.08D-12 Max=5.15D-11 NDo=     1
 Linear equations converged to 6.807D-12 6.807D-11 after     7 iterations.
 LinEq1:  Iter=  0 NonCon=     1 RMS=8.00D-08 Max=7.97D-07 NDo=     1
 LinEq1:  Iter=  1 NonCon=     1 RMS=4.63D-08 Max=4.75D-07 NDo=     1
 LinEq1:  Iter=  2 NonCon=     1 RMS=2.36D-08 Max=1.90D-07 NDo=     1
 LinEq1:  Iter=  3 NonCon=     1 RMS=1.13D-08 Max=8.87D-08 NDo=     1
 LinEq1:  Iter=  4 NonCon=     1 RMS=3.94D-09 Max=3.35D-08 NDo=     1
 LinEq1:  Iter=  5 NonCon=     1 RMS=6.00D-10 Max=3.73D-09 NDo=     1
 LinEq1:  Iter=  6 NonCon=     1 RMS=8.75D-11 Max=6.24D-10 NDo=     1
 LinEq1:  Iter=  7 NonCon=     0 RMS=4.47D-11 Max=6.08D-10 NDo=     1
 Linear equations converged to 7.081D-11 7.081D-10 after     7 iterations.
 LinEq1:  Iter=  0 NonCon=     1 RMS=7.36D-09 Max=1.00D-07 NDo=     1
 LinEq1:  Iter=  1 NonCon=     1 RMS=4.45D-09 Max=3.81D-08 NDo=     1
 LinEq1:  Iter=  2 NonCon=     1 RMS=1.53D-09 Max=1.50D-08 NDo=     1
 LinEq1:  Iter=  3 NonCon=     1 RMS=5.58D-10 Max=4.14D-09 NDo=     1
 LinEq1:  Iter=  4 NonCon=     1 RMS=1.33D-10 Max=9.29D-10 NDo=     1
 LinEq1:  Iter=  5 NonCon=     1 RMS=2.56D-11 Max=2.37D-10 NDo=     1
 LinEq1:  Iter=  6 NonCon=     1 RMS=8.93D-12 Max=7.97D-11 NDo=     1
 LinEq1:  Iter=  7 NonCon=     0 RMS=4.22D-12 Max=4.59D-11 NDo=     1
 Linear equations converged to 5.492D-12 5.492D-11 after     7 iterations.
 LinEq1:  Iter=  0 NonCon=     1 RMS=3.88D-08 Max=4.11D-07 NDo=     1
 LinEq1:  Iter=  1 NonCon=     1 RMS=2.26D-08 Max=2.15D-07 NDo=     1
 LinEq1:  Iter=  2 NonCon=     1 RMS=1.05D-08 Max=7.46D-08 NDo=     1
 LinEq1:  Iter=  3 NonCon=     1 RMS=5.21D-09 Max=4.16D-08 NDo=     1
 LinEq1:  Iter=  4 NonCon=     1 RMS=1.82D-09 Max=1.48D-08 NDo=     1
 LinEq1:  Iter=  5 NonCon=     1 RMS=2.71D-10 Max=2.10D-09 NDo=     1
 LinEq1:  Iter=  6 NonCon=     1 RMS=5.41D-11 Max=6.12D-10 NDo=     1
 LinEq1:  Iter=  7 NonCon=     1 RMS=3.32D-11 Max=3.61D-10 NDo=     1
 LinEq1:  Iter=  8 NonCon=     0 RMS=4.80D-12 Max=2.84D-11 NDo=     1
 Linear equations converged to 3.047D-11 3.047D-10 after     8 iterations.
 LinEq1:  Iter=  0 NonCon=     1 RMS=7.70D-08 Max=4.50D-07 NDo=     1
 LinEq1:  Iter=  1 NonCon=     1 RMS=1.64D-08 Max=1.22D-07 NDo=     1
 LinEq1:  Iter=  2 NonCon=     1 RMS=8.20D-09 Max=1.02D-07 NDo=     1
 LinEq1:  Iter=  3 NonCon=     1 RMS=4.57D-09 Max=3.73D-08 NDo=     1
 LinEq1:  Iter=  4 NonCon=     1 RMS=1.98D-09 Max=1.42D-08 NDo=     1
 LinEq1:  Iter=  5 NonCon=     1 RMS=5.53D-10 Max=4.05D-09 NDo=     1
 LinEq1:  Iter=  6 NonCon=     1 RMS=8.69D-11 Max=8.84D-10 NDo=     1
 LinEq1:  Iter=  7 NonCon=     0 RMS=2.36D-11 Max=1.78D-10 NDo=     1
 Linear equations converged to 4.180D-11 4.180D-10 after     7 iterations.
 LinEq1:  Iter=  0 NonCon=     1 RMS=5.74D-08 Max=4.33D-07 NDo=     1
 LinEq1:  Iter=  1 NonCon=     1 RMS=3.16D-08 Max=3.59D-07 NDo=     1
 LinEq1:  Iter=  2 NonCon=     1 RMS=1.29D-08 Max=9.07D-08 NDo=     1
 LinEq1:  Iter=  3 NonCon=     1 RMS=6.14D-09 Max=4.62D-08 NDo=     1
 LinEq1:  Iter=  4 NonCon=     1 RMS=2.55D-09 Max=1.99D-08 NDo=     1
 LinEq1:  Iter=  5 NonCon=     1 RMS=4.80D-10 Max=3.06D-09 NDo=     1
 LinEq1:  Iter=  6 NonCon=     1 RMS=1.18D-10 Max=6.53D-10 NDo=     1
 LinEq1:  Iter=  7 NonCon=     1 RMS=4.07D-11 Max=5.32D-10 NDo=     1
 LinEq1:  Iter=  8 NonCon=     0 RMS=1.90D-11 Max=1.36D-10 NDo=     1
 Linear equations converged to 2.997D-11 2.997D-10 after     8 iterations.
 LinEq1:  Iter=  0 NonCon=     1 RMS=1.39D-08 Max=9.99D-08 NDo=     1
 LinEq1:  Iter=  1 NonCon=     1 RMS=7.30D-09 Max=8.80D-08 NDo=     1
 LinEq1:  Iter=  2 NonCon=     1 RMS=4.28D-09 Max=3.58D-08 NDo=     1
 LinEq1:  Iter=  3 NonCon=     1 RMS=2.06D-09 Max=1.69D-08 NDo=     1
 LinEq1:  Iter=  4 NonCon=     1 RMS=5.40D-10 Max=4.17D-09 NDo=     1
 LinEq1:  Iter=  5 NonCon=     1 RMS=1.39D-10 Max=1.22D-09 NDo=     1
 LinEq1:  Iter=  6 NonCon=     1 RMS=3.66D-11 Max=2.67D-10 NDo=     1
 LinEq1:  Iter=  7 NonCon=     0 RMS=1.05D-11 Max=1.22D-10 NDo=     1
 Linear equations converged to 1.424D-11 1.424D-10 after     7 iterations.
 LinEq1:  Iter=  0 NonCon=     1 RMS=3.23D-08 Max=3.75D-07 NDo=     1
 LinEq1:  Iter=  1 NonCon=     1 RMS=1.90D-08 Max=1.65D-07 NDo=     1
 LinEq1:  Iter=  2 NonCon=     1 RMS=1.16D-08 Max=8.12D-08 NDo=     1
 LinEq1:  Iter=  3 NonCon=     1 RMS=3.20D-09 Max=2.45D-08 NDo=     1
 LinEq1:  Iter=  4 NonCon=     1 RMS=8.02D-10 Max=7.57D-09 NDo=     1
 LinEq1:  Iter=  5 NonCon=     1 RMS=1.90D-10 Max=1.35D-09 NDo=     1
 LinEq1:  Iter=  6 NonCon=     1 RMS=5.09D-11 Max=5.86D-10 NDo=     1
 LinEq1:  Iter=  7 NonCon=     0 RMS=2.78D-11 Max=2.69D-10 NDo=     1
 Linear equations converged to 3.814D-11 3.814D-10 after     7 iterations.
 LinEq1:  Iter=  0 NonCon=     1 RMS=1.04D-08 Max=1.01D-07 NDo=     1
 LinEq1:  Iter=  1 NonCon=     1 RMS=6.28D-09 Max=7.02D-08 NDo=     1
 LinEq1:  Iter=  2 NonCon=     1 RMS=2.94D-09 Max=2.39D-08 NDo=     1
 LinEq1:  Iter=  3 NonCon=     1 RMS=1.50D-09 Max=1.21D-08 NDo=     1
 LinEq1:  Iter=  4 NonCon=     1 RMS=5.26D-10 Max=5.34D-09 NDo=     1
 LinEq1:  Iter=  5 NonCon=     1 RMS=1.32D-10 Max=8.66D-10 NDo=     1
 LinEq1:  Iter=  6 NonCon=     1 RMS=2.19D-11 Max=1.57D-10 NDo=     1
 LinEq1:  Iter=  7 NonCon=     1 RMS=9.43D-12 Max=1.17D-10 NDo=     1
 LinEq1:  Iter=  8 NonCon=     0 RMS=2.79D-12 Max=2.07D-11 NDo=     1
 Linear equations converged to 9.614D-12 9.614D-11 after     8 iterations.
 LinEq1:  Iter=  0 NonCon=     1 RMS=9.89D-08 Max=7.33D-07 NDo=     1
 LinEq1:  Iter=  1 NonCon=     1 RMS=4.09D-08 Max=3.98D-07 NDo=     1
 LinEq1:  Iter=  2 NonCon=     1 RMS=2.12D-08 Max=2.19D-07 NDo=     1
 LinEq1:  Iter=  3 NonCon=     1 RMS=8.01D-09 Max=6.35D-08 NDo=     1
 LinEq1:  Iter=  4 NonCon=     1 RMS=2.58D-09 Max=2.14D-08 NDo=     1
 LinEq1:  Iter=  5 NonCon=     1 RMS=5.51D-10 Max=5.35D-09 NDo=     1
 LinEq1:  Iter=  6 NonCon=     1 RMS=1.79D-10 Max=1.62D-09 NDo=     1
 LinEq1:  Iter=  7 NonCon=     1 RMS=4.45D-11 Max=5.26D-10 NDo=     1
 LinEq1:  Iter=  8 NonCon=     0 RMS=2.54D-11 Max=2.48D-10 NDo=     1
 Linear equations converged to 3.679D-11 3.679D-10 after     8 iterations.
 LinEq1:  Iter=  0 NonCon=     1 RMS=1.04D-08 Max=1.01D-07 NDo=     1
 LinEq1:  Iter=  1 NonCon=     1 RMS=6.28D-09 Max=7.27D-08 NDo=     1
 LinEq1:  Iter=  2 NonCon=     1 RMS=2.37D-09 Max=2.11D-08 NDo=     1
 LinEq1:  Iter=  3 NonCon=     1 RMS=1.17D-09 Max=8.00D-09 NDo=     1
 LinEq1:  Iter=  4 NonCon=     1 RMS=4.77D-10 Max=4.93D-09 NDo=     1
 LinEq1:  Iter=  5 NonCon=     1 RMS=1.30D-10 Max=8.87D-10 NDo=     1
 LinEq1:  Iter=  6 NonCon=     1 RMS=1.96D-11 Max=1.47D-10 NDo=     1
 LinEq1:  Iter=  7 NonCon=     1 RMS=8.73D-12 Max=1.07D-10 NDo=     1
 LinEq1:  Iter=  8 NonCon=     0 RMS=2.68D-12 Max=2.09D-11 NDo=     1
 Linear equations converged to 8.389D-12 8.389D-11 after     8 iterations.
 LinEq1:  Iter=  0 NonCon=     1 RMS=1.14D-07 Max=8.91D-07 NDo=     1
 LinEq1:  Iter=  1 NonCon=     1 RMS=4.77D-08 Max=4.74D-07 NDo=     1
 LinEq1:  Iter=  2 NonCon=     1 RMS=2.36D-08 Max=2.43D-07 NDo=     1
 LinEq1:  Iter=  3 NonCon=     1 RMS=7.22D-09 Max=5.52D-08 NDo=     1
 LinEq1:  Iter=  4 NonCon=     1 RMS=2.59D-09 Max=2.12D-08 NDo=     1
 LinEq1:  Iter=  5 NonCon=     1 RMS=6.54D-10 Max=6.45D-09 NDo=     1
 LinEq1:  Iter=  6 NonCon=     1 RMS=1.95D-10 Max=1.84D-09 NDo=     1
 LinEq1:  Iter=  7 NonCon=     1 RMS=4.79D-11 Max=5.42D-10 NDo=     1
 LinEq1:  Iter=  8 NonCon=     0 RMS=2.88D-11 Max=3.02D-10 NDo=     1
 Linear equations converged to 3.548D-11 3.548D-10 after     8 iterations.
 LinEq1:  Iter=  0 NonCon=     1 RMS=9.57D-09 Max=1.01D-07 NDo=     1
 LinEq1:  Iter=  1 NonCon=     1 RMS=6.03D-09 Max=6.82D-08 NDo=     1
 LinEq1:  Iter=  2 NonCon=     1 RMS=1.62D-09 Max=1.45D-08 NDo=     1
 LinEq1:  Iter=  3 NonCon=     1 RMS=4.67D-10 Max=4.77D-09 NDo=     1
 LinEq1:  Iter=  4 NonCon=     1 RMS=1.15D-10 Max=8.00D-10 NDo=     1
 LinEq1:  Iter=  5 NonCon=     1 RMS=1.26D-11 Max=8.10D-11 NDo=     1
 LinEq1:  Iter=  6 NonCon=     1 RMS=6.27D-12 Max=6.44D-11 NDo=     1
 LinEq1:  Iter=  7 NonCon=     1 RMS=4.50D-12 Max=3.96D-11 NDo=     1
 LinEq1:  Iter=  8 NonCon=     0 RMS=2.24D-12 Max=1.53D-11 NDo=     1
 Linear equations converged to 2.328D-12 2.328D-11 after     8 iterations.
 LinEq1:  Iter=  0 NonCon=     1 RMS=3.65D-08 Max=2.49D-07 NDo=     1
 LinEq1:  Iter=  1 NonCon=     1 RMS=2.02D-08 Max=1.74D-07 NDo=     1
 LinEq1:  Iter=  2 NonCon=     1 RMS=1.33D-08 Max=1.06D-07 NDo=     1
 LinEq1:  Iter=  3 NonCon=     1 RMS=7.10D-09 Max=5.52D-08 NDo=     1
 LinEq1:  Iter=  4 NonCon=     1 RMS=9.90D-10 Max=5.64D-09 NDo=     1
 LinEq1:  Iter=  5 NonCon=     1 RMS=2.28D-10 Max=2.10D-09 NDo=     1
 LinEq1:  Iter=  6 NonCon=     1 RMS=7.17D-11 Max=5.65D-10 NDo=     1
 LinEq1:  Iter=  7 NonCon=     1 RMS=2.78D-11 Max=3.14D-10 NDo=     1
 LinEq1:  Iter=  8 NonCon=     1 RMS=1.08D-11 Max=7.22D-11 NDo=     1
 LinEq1:  Iter=  9 NonCon=     0 RMS=1.50D-12 Max=1.06D-11 NDo=     1
 Linear equations converged to 1.023D-11 1.023D-10 after     9 iterations.
 Incorrect curvature in search direction -- initial direction reversed.
 LinEq1:  Iter=  0 NonCon=     1 RMS=4.94D-08 Max=2.78D-07 NDo=     1
 LinEq1:  Iter=  1 NonCon=     1 RMS=2.13D-08 Max=1.61D-07 NDo=     1
 LinEq1:  Iter=  2 NonCon=     1 RMS=1.52D-08 Max=1.37D-07 NDo=     1
 LinEq1:  Iter=  3 NonCon=     1 RMS=7.87D-09 Max=4.73D-08 NDo=     1
 LinEq1:  Iter=  4 NonCon=     1 RMS=1.93D-09 Max=1.53D-08 NDo=     1
 LinEq1:  Iter=  5 NonCon=     1 RMS=4.88D-10 Max=4.59D-09 NDo=     1
 LinEq1:  Iter=  6 NonCon=     1 RMS=1.22D-10 Max=8.03D-10 NDo=     1
 LinEq1:  Iter=  7 NonCon=     1 RMS=3.48D-11 Max=3.72D-10 NDo=     1
 LinEq1:  Iter=  8 NonCon=     1 RMS=1.69D-11 Max=1.20D-10 NDo=     1
 LinEq1:  Iter=  9 NonCon=     0 RMS=4.56D-12 Max=3.31D-11 NDo=     1
 Linear equations converged to 1.547D-11 1.547D-10 after     9 iterations.
 LinEq1:  Iter=  0 NonCon=     1 RMS=7.83D-08 Max=5.70D-07 NDo=     1
 LinEq1:  Iter=  1 NonCon=     1 RMS=2.21D-08 Max=1.38D-07 NDo=     1
 LinEq1:  Iter=  2 NonCon=     1 RMS=9.72D-09 Max=8.99D-08 NDo=     1
 LinEq1:  Iter=  3 NonCon=     1 RMS=3.21D-09 Max=1.87D-08 NDo=     1
 LinEq1:  Iter=  4 NonCon=     1 RMS=9.92D-10 Max=8.02D-09 NDo=     1
 LinEq1:  Iter=  5 NonCon=     1 RMS=5.18D-10 Max=3.49D-09 NDo=     1
 LinEq1:  Iter=  6 NonCon=     1 RMS=1.84D-10 Max=1.15D-09 NDo=     1
 LinEq1:  Iter=  7 NonCon=     1 RMS=4.20D-11 Max=3.17D-10 NDo=     1
 LinEq1:  Iter=  8 NonCon=     0 RMS=2.36D-11 Max=1.96D-10 NDo=     1
 Linear equations converged to 3.068D-11 3.068D-10 after     8 iterations.
 LinEq1:  Iter=  0 NonCon=     1 RMS=1.22D-08 Max=1.02D-07 NDo=     1
 LinEq1:  Iter=  1 NonCon=     1 RMS=7.90D-09 Max=6.22D-08 NDo=     1
 LinEq1:  Iter=  2 NonCon=     1 RMS=1.85D-09 Max=1.39D-08 NDo=     1
 LinEq1:  Iter=  3 NonCon=     1 RMS=5.84D-10 Max=4.02D-09 NDo=     1
 LinEq1:  Iter=  4 NonCon=     1 RMS=3.05D-10 Max=2.24D-09 NDo=     1
 LinEq1:  Iter=  5 NonCon=     1 RMS=1.00D-10 Max=6.65D-10 NDo=     1
 LinEq1:  Iter=  6 NonCon=     1 RMS=3.27D-11 Max=2.75D-10 NDo=     1
 LinEq1:  Iter=  7 NonCon=     1 RMS=1.58D-11 Max=9.93D-11 NDo=     1
 LinEq1:  Iter=  8 NonCon=     1 RMS=3.84D-12 Max=2.93D-11 NDo=     1
 LinEq1:  Iter=  9 NonCon=     0 RMS=6.89D-13 Max=5.69D-12 NDo=     1
 Linear equations converged to 2.466D-12 2.466D-11 after     9 iterations.
 QCLLim is confused:  Bigger=T Turned=T
 NLin=  3 IMin12=  1  2 I12=  0  2 IX=  1 XLMin= 0.000D+00 XLMax= 0.000D+00
 X = 0.000D+00 1.000D+00 2.000D+00
 DE= 0.000D+00 4.852D-11 2.480D-10
 LinEq1:  Iter=  0 NonCon=     1 RMS=3.00D-08 Max=2.29D-07 NDo=     1
 LinEq1:  Iter=  1 NonCon=     1 RMS=1.12D-08 Max=1.10D-07 NDo=     1
 LinEq1:  Iter=  2 NonCon=     1 RMS=5.59D-09 Max=4.34D-08 NDo=     1
 LinEq1:  Iter=  3 NonCon=     1 RMS=1.68D-09 Max=1.29D-08 NDo=     1
 LinEq1:  Iter=  4 NonCon=     1 RMS=7.86D-10 Max=7.22D-09 NDo=     1
 LinEq1:  Iter=  5 NonCon=     1 RMS=3.08D-10 Max=3.11D-09 NDo=     1
 LinEq1:  Iter=  6 NonCon=     1 RMS=6.80D-11 Max=4.47D-10 NDo=     1
 LinEq1:  Iter=  7 NonCon=     1 RMS=2.92D-11 Max=3.10D-10 NDo=     1
 LinEq1:  Iter=  8 NonCon=     0 RMS=6.52D-12 Max=4.48D-11 NDo=     1
 Linear equations converged to 7.381D-12 7.381D-11 after     8 iterations.
 LinEq1:  Iter=  0 NonCon=     1 RMS=3.91D-08 Max=2.62D-07 NDo=     1
 LinEq1:  Iter=  1 NonCon=     1 RMS=1.09D-08 Max=8.67D-08 NDo=     1
 LinEq1:  Iter=  2 NonCon=     1 RMS=6.21D-09 Max=5.58D-08 NDo=     1
 LinEq1:  Iter=  3 NonCon=     1 RMS=2.56D-09 Max=1.81D-08 NDo=     1
 LinEq1:  Iter=  4 NonCon=     1 RMS=1.28D-09 Max=8.00D-09 NDo=     1
 LinEq1:  Iter=  5 NonCon=     1 RMS=4.32D-10 Max=3.38D-09 NDo=     1
 LinEq1:  Iter=  6 NonCon=     1 RMS=7.72D-11 Max=4.85D-10 NDo=     1
 LinEq1:  Iter=  7 NonCon=     1 RMS=2.41D-11 Max=2.06D-10 NDo=     1
 LinEq1:  Iter=  8 NonCon=     1 RMS=1.20D-11 Max=9.45D-11 NDo=     1
 LinEq1:  Iter=  9 NonCon=     0 RMS=2.48D-12 Max=1.61D-11 NDo=     1
 Linear equations converged to 1.044D-11 1.044D-10 after     9 iterations.
 LinEq1:  Iter=  0 NonCon=     1 RMS=9.25D-08 Max=6.03D-07 NDo=     1
 LinEq1:  Iter=  1 NonCon=     1 RMS=2.75D-08 Max=1.87D-07 NDo=     1
 LinEq1:  Iter=  2 NonCon=     1 RMS=1.08D-08 Max=1.02D-07 NDo=     1
 LinEq1:  Iter=  3 NonCon=     1 RMS=3.94D-09 Max=2.49D-08 NDo=     1
 LinEq1:  Iter=  4 NonCon=     1 RMS=1.75D-09 Max=1.23D-08 NDo=     1
 LinEq1:  Iter=  5 NonCon=     1 RMS=7.30D-10 Max=6.18D-09 NDo=     1
 LinEq1:  Iter=  6 NonCon=     1 RMS=1.74D-10 Max=1.25D-09 NDo=     1
 LinEq1:  Iter=  7 NonCon=     1 RMS=3.93D-11 Max=3.59D-10 NDo=     1
 LinEq1:  Iter=  8 NonCon=     1 RMS=2.24D-11 Max=1.91D-10 NDo=     1
 LinEq1:  Iter=  9 NonCon=     0 RMS=6.62D-12 Max=4.41D-11 NDo=     1
 Linear equations converged to 1.815D-11 1.815D-10 after     9 iterations.
 LinEq1:  Iter=  0 NonCon=     1 RMS=3.99D-08 Max=2.66D-07 NDo=     1
 LinEq1:  Iter=  1 NonCon=     1 RMS=1.18D-08 Max=1.04D-07 NDo=     1
 LinEq1:  Iter=  2 NonCon=     1 RMS=6.44D-09 Max=6.18D-08 NDo=     1
 LinEq1:  Iter=  3 NonCon=     1 RMS=1.89D-09 Max=1.09D-08 NDo=     1
 LinEq1:  Iter=  4 NonCon=     1 RMS=8.80D-10 Max=5.95D-09 NDo=     1
 LinEq1:  Iter=  5 NonCon=     1 RMS=3.76D-10 Max=2.67D-09 NDo=     1
 LinEq1:  Iter=  6 NonCon=     1 RMS=8.70D-11 Max=6.62D-10 NDo=     1
[...]
      9 vectors produced by pass  0 Test12= 2.24D-15 8.33D-09 XBig12= 1.06D+01 2.26D+00.
 AX will form     9 AO Fock derivatives at one time.
      9 vectors produced by pass  1 Test12= 2.24D-15 8.33D-09 XBig12= 2.99D-01 3.44D-01.
      9 vectors produced by pass  2 Test12= 2.24D-15 8.33D-09 XBig12= 3.99D-04 1.23D-02.
      9 vectors produced by pass  3 Test12= 2.24D-15 8.33D-09 XBig12= 1.74D-06 5.75D-04.
      7 vectors produced by pass  4 Test12= 2.24D-15 8.33D-09 XBig12= 5.69D-09 3.58D-05.
      5 vectors produced by pass  5 Test12= 2.24D-15 8.33D-09 XBig12= 1.47D-10 4.66D-06.
      2 vectors produced by pass  6 Test12= 2.24D-15 8.33D-09 XBig12= 7.18D-13 2.62D-07.
      1 vectors produced by pass  7 Test12= 2.24D-15 8.33D-09 XBig12= 7.62D-16 8.99D-09.
 InvSVY:  IOpt=1 It=  1 EMax= 1.02D-15
 Solved reduced A of dimension    51 with     9 vectors.
 Isotropic polarizability for W=    0.000000        4.61 Bohr**3.
 End of Minotr F.D. properties file   721 does not exist.
 End of Minotr F.D. properties file   722 does not exist.
 End of Minotr F.D. properties file   788 does not exist.

 **********************************************************************

            Population analysis using the SCF Density.

 **********************************************************************

 Alpha  occ. eigenvalues --  -24.76654  -1.22457  -0.55648  -0.46924  -0.46797
 Alpha  occ. eigenvalues --   -0.41984
 Alpha virt. eigenvalues --    0.05122   0.20323   0.45358   0.85821   0.90693
 Alpha virt. eigenvalues --    0.93840   1.06150   1.08431   1.08439   1.52587
 Alpha virt. eigenvalues --    1.79099   1.79108   2.06285   2.38912   3.05546
 Alpha virt. eigenvalues --    3.64608   3.66766   3.66804   3.73808   3.73955
 Alpha virt. eigenvalues --    5.85274   5.93217   5.96357  66.46895
  Beta  occ. eigenvalues --  -24.73492  -1.13370  -0.43857  -0.43627  -0.41877
  Beta virt. eigenvalues --   -0.26269   0.05165   0.20353   0.45460   0.92192
  Beta virt. eigenvalues --    0.95277   0.95674   1.08431   1.08438   1.09809
  Beta virt. eigenvalues --    1.52598   1.79098   1.79107   2.06311   2.38919
  Beta virt. eigenvalues --    3.05543   3.75450   3.75594   3.76604   3.76627
  Beta virt. eigenvalues --    3.78711   5.95893   5.99037   5.99458  66.50044
          Condensed to atoms (all electrons):
               1          2          3
     1  H    0.597540   0.398753   0.009027
     2  H    0.398753   0.607722  -0.001957
     3  F    0.009027  -0.001957   8.983090
          Atomic-Atomic Spin Densities.
               1          2          3
     1  H   -0.001204   0.001214  -0.001161
     2  H    0.001214  -0.001610   0.000229
     3  F   -0.001161   0.000229   1.002250
 Mulliken charges and spin densities:
               1          2
     1  H   -0.005321  -0.001151
     2  H   -0.004519  -0.000167
     3  F    0.009839   1.001318
 Sum of Mulliken charges =   0.00000   1.00000
 Mulliken charges and spin densities with hydrogens summed into heavy atoms:
               1          2
     3  F    0.000000   1.000000
 APT charges:
               1
     1  H    0.006711
     2  H   -0.003167
     3  F   -0.003544
 Sum of APT charges =   0.00000
 APT charges with hydrogens summed into heavy atoms:
               1
     3  F    0.000000
 Electronic spatial extent (au):  <R**2>=            296.3099
 Charge=              0.0000 electrons
 Dipole moment (field-independent basis, Debye):
    X=              0.1005    Y=             -0.0000    Z=             -0.0000  Tot=              0.1005
 Quadrupole moment (field-independent basis, Debye-Ang):
   XX=             -6.0807   YY=             -6.8362   ZZ=             -6.3569
   XY=              0.0000   XZ=              0.0000   YZ=              0.3591
 Traceless Quadrupole moment (field-independent basis, Debye-Ang):
   XX=              0.3439   YY=             -0.4116   ZZ=              0.0677
   XY=              0.0000   XZ=              0.0000   YZ=              0.3591
 Octapole moment (field-independent basis, Debye-Ang**2):
  XXX=            -39.5929  YYY=             -0.0000  ZZZ=             -0.0000  XYY=            -12.8082
  XXY=              0.0000  XXZ=              0.0000  XZZ=            -11.3942  YZZ=             -0.0000
  YYZ=             -0.0000  XYZ=              1.0594
 Hexadecapole moment (field-independent basis, Debye-Ang**3):
 XXXX=           -255.5128 YYYY=             -4.9073 ZZZZ=             -4.4792 XXXY=              0.0000
 XXXZ=              0.0001 YYYX=              0.0000 YYYZ=              0.1604 ZZZX=              0.0000
 ZZZY=              0.1604 XXYY=            -42.5602 XXZZ=            -38.3178 YYZZ=             -1.5644
 XXYZ=              3.1787 YYXZ=              0.0000 ZZXY=              0.0000
 N-N= 3.545935768427D+00 E-N=-2.481663974360D+02  KE= 1.007011486052D+02
  Exact polarizability:       9.396       0.000       2.091      -0.000       0.191       2.346
 Approx polarizability:      10.940       0.000       2.191       0.000       0.240       2.511
                          Isotropic Fermi Contact Couplings
        Atom                 a.u.       MegaHertz       Gauss      10(-4) cm-1
     1  H(1)               0.00003       0.11309       0.04035       0.03772
     2  H(1)              -0.00008      -0.36905      -0.13169      -0.12310
     3  F(19)              0.03136     131.93634      47.07817      44.00922
 --------------------------------------------------------
       Center         ----  Spin Dipole Couplings  ----
                      3XX-RR        3YY-RR        3ZZ-RR
 --------------------------------------------------------
     1   Atom        0.010773     -0.005480     -0.005293
     2   Atom        0.005405     -0.002731     -0.002674
     3   Atom       -3.143245     -1.052227      4.195473
 --------------------------------------------------------
                        XY            XZ            YZ
 --------------------------------------------------------
     1   Atom       -0.000000     -0.000000      0.000141
     2   Atom       -0.000000     -0.000000      0.000042
     3   Atom        0.000012      0.000023      3.931919
 --------------------------------------------------------


 ---------------------------------------------------------------------------------
              Anisotropic Spin Dipole Couplings in Principal Axis System
 ---------------------------------------------------------------------------------

       Atom             a.u.   MegaHertz   Gauss  10(-4) cm-1        Axes

              Baa    -0.0056    -2.964    -1.058    -0.989  0.0000  0.8818 -0.4717
     1 H(1)   Bbb    -0.0052    -2.784    -0.993    -0.929  0.0000  0.4717  0.8818
              Bcc     0.0108     5.748     2.051     1.917  1.0000 -0.0000 -0.0000
 
              Baa    -0.0028    -1.469    -0.524    -0.490  0.0000  0.8818 -0.4717
     2 H(1)   Bbb    -0.0027    -1.415    -0.505    -0.472  0.0000  0.4717  0.8818
              Bcc     0.0054     2.884     1.029     0.962  1.0000 -0.0000 -0.0000
 
              Baa    -3.1554 -1584.714  -565.465  -528.604  0.0000  0.8818 -0.4717
     3 F(19)  Bbb    -3.1432 -1578.618  -563.290  -526.570  1.0000 -0.0000 -0.0000
              Bcc     6.2986  3163.332  1128.756  1055.174  0.0000  0.4717  0.8818
 

 ---------------------------------------------------------------------------------

 Calling FoFJK, ICntrl=    100127 FMM=F ISym2X=0 I1Cent= 0 IOpClX= 1 NMat=1 NMatS=1 NMatT=0.
 Full mass-weighted force constant matrix:
 Low frequencies ---   -0.0018   -0.0003    0.0007   35.2762   40.2936   62.2537
 Low frequencies --- 1086.8308 1088.6241 3695.4800
 Diagonal vibrational polarizability:
        2.1129989       0.0001461       0.0001578
 Harmonic frequencies (cm**-1), IR intensities (KM/Mole), Raman scattering
 activities (A**4/AMU), depolarization ratios for plane and unpolarized
 incident light, reduced masses (AMU), force constants (mDyne/A),
 and normal coordinates:
                      1                      2                      3
                      A                      A                      A
 Frequencies --     62.2537              1078.8451              1080.7406
 Red. masses --      1.1085                 1.0092                 1.0092
 Frc consts  --      0.0025                 0.6921                 0.6945
 IR Inten    --      0.3041                 0.0070                 0.0061
  Atom  AN      X      Y      Z        X      Y      Z        X      Y      Z
     1   1     0.71   0.00  -0.00     0.00   0.36   0.70    -0.00   0.70  -0.36
     2   1     0.71  -0.00   0.00     0.00  -0.29  -0.55    -0.00  -0.55   0.29
     3   9    -0.07  -0.00   0.00    -0.00  -0.00  -0.01     0.00  -0.01   0.00
                      4
                      A
 Frequencies --   3695.4800
 Red. masses --      1.0078
 Frc consts  --      8.1092
 IR Inten    --      0.6033
  Atom  AN      X      Y      Z
     1   1     0.71  -0.00   0.00
     2   1    -0.71   0.00  -0.00
     3   9    -0.00   0.00  -0.00

 -------------------
 - Thermochemistry -
 -------------------
 Temperature   298.150 Kelvin.  Pressure   1.00000 Atm.
 Atom     1 has atomic number  1 and mass   1.00783
 Atom     2 has atomic number  1 and mass   1.00783
 Atom     3 has atomic number  9 and mass  18.99840
 Molecular mass:    21.01405 amu.
 Principal axes and moments of inertia in atomic units:
                           1         2         3
     Eigenvalues --     0.00000  74.18311  74.18311
           X            1.00000  -0.00000   0.00000
           Y            0.00000   1.00000   0.00000
           Z            0.00000   0.00000   1.00000
 This molecule is a prolate symmetric top.
 Rotational symmetry number  1.
 Rotational temperature (Kelvin)      1.16757
 Rotational constant (GHZ):          24.328197
 Zero-point vibrational energy      35393.4 (Joules/Mol)
                                    8.45923 (Kcal/Mol)
 Warning -- explicit consideration of   1 degrees of freedom as
           vibrations may cause significant error
 Vibrational temperatures:     89.57  1552.22  1554.94  5316.97
          (Kelvin)
 
 Zero-point correction=                           0.013481 (Hartree/Particle)
 Thermal correction to Energy=                    0.016705
 Thermal correction to Enthalpy=                  0.017649
 Thermal correction to Gibbs Free Energy=        -0.007993
 Sum of electronic and zero-point Energies=           -100.919112
 Sum of electronic and thermal Energies=              -100.915888
 Sum of electronic and thermal Enthalpies=            -100.914944
 Sum of electronic and thermal Free Energies=         -100.940586
 
                     E (Thermal)             CV                S
                      KCal/Mol        Cal/Mol-Kelvin    Cal/Mol-Kelvin
 Total                   10.482              7.536             53.967
 Electronic               0.000              0.000              1.377
 Translational            0.889              2.981             35.068
 Rotational               0.592              1.987             13.002
 Vibrational              9.001              2.568              4.520
 Vibration     1          0.597              1.972              4.384
                       Q            Log10(Q)             Ln(Q)
 Total Bot       0.474648D+04          3.676372          8.465159
 Total V=0       0.753413D+10          9.877033         22.742709
 Vib (Bot)       0.245455D-05         -5.610029        -12.917569
 Vib (Bot)    1  0.331623D+01          0.520644          1.198827
 Vib (V=0)       0.389612D+01          0.590632          1.359981
 Vib (V=0)    1  0.385371D+01          0.585879          1.349035
 Electronic      0.200000D+01          0.301030          0.693147
 Translational   0.378633D+07          6.578219         15.146908
 Rotational      0.255360D+03          2.407152          5.542673
 -------------------------------------------------------------------
 Center     Atomic                   Forces (Hartrees/Bohr)
 Number     Number              X              Y              Z
 -------------------------------------------------------------------
      1        1          -0.032822676    0.000000001    0.000000002
      2        1           0.033180074   -0.000000000   -0.000000001
      3        9          -0.000357398   -0.000000000   -0.000000001
 -------------------------------------------------------------------
 Cartesian Forces:  Max     0.033180074 RMS     0.015557681

 GradGradGradGradGradGradGradGradGradGradGradGradGradGradGradGradGradGrad
 Berny optimization.
 Search for a local minimum.
 Step number   1 out of a maximum of    2
 All quantities printed in internal units (Hartrees-Bohrs-Radians)
 Second derivative matrix not updated -- analytic derivatives used.
 The second derivative matrix:
                          X1        Y1        Z1        X2        Y2
           X1           0.26052
           Y1          -0.00000   0.02279
           Z1           0.00000  -0.00005   0.02272
           X2          -0.26036   0.00000  -0.00000   0.26047
           Y2           0.00000  -0.02256   0.00003  -0.00000   0.02243
           Z2          -0.00000   0.00003  -0.02252   0.00000  -0.00002
           X3          -0.00016   0.00000  -0.00000  -0.00011  -0.00000
           Y3           0.00000  -0.00024   0.00002  -0.00000   0.00013
           Z3          -0.00000   0.00002  -0.00020   0.00000  -0.00001
                          Z2        X3        Y3        Z3
           Z2           0.02240
           X3           0.00000   0.00027
           Y3          -0.00001  -0.00000   0.00011
           Z3           0.00011   0.00000  -0.00001   0.00009
 ITU=  0
     Eigenvalues ---    0.00030   0.04434   0.04450   0.52086
 Quadratic step=1.268D+00 exceeds max=3.000D-01 adjusted using Lamda=-1.038D-03.
 Angle between NR and scaled steps=  13.29 degrees.
 Angle between quadratic step and forces=  72.19 degrees.
 Linear search not attempted -- first point.
 B after Tr=    -0.081410   -0.000000   -0.000000
         Rot=    0.890822   -0.454352    0.000000    0.000000 Ang= -54.05 deg.
 Variable       Old X    -DE/DX   Delta X   Delta X   Delta X     New X
                                 (Linear)    (Quad)   (Total)
    X1        0.00000  -0.03282   0.00000   0.11992   0.03851   0.03851
    Y1        0.00000   0.00000   0.00000   0.00000   0.00000   0.00000
    Z1        0.00000   0.00000   0.00000  -0.00000   0.00000   0.00000
    X2       -1.51178   0.03318   0.00000   0.24642   0.16501  -1.34677
    Y2        0.00000  -0.00000   0.00000  -0.00000  -0.00000  -0.00000
    Z2        0.00000  -0.00000   0.00000   0.00000  -0.00000  -0.00000
    X3        5.57469  -0.00036   0.00000  -0.12212  -0.20353   5.37117
    Y3        0.00000  -0.00000   0.00000  -0.00000  -0.00000  -0.00000
    Z3        0.00000  -0.00000   0.00000   0.00000  -0.00000  -0.00000
         Item               Value     Threshold  Converged?
 Maximum Force            0.033180     0.000450     NO 
 RMS     Force            0.015558     0.000300     NO 
 Maximum Displacement     0.203525     0.001800     NO 
 RMS     Displacement     0.088276     0.001200     NO 
 Predicted change in Energy=-2.188543D-03
 GradGradGradGradGradGradGradGradGradGradGradGradGradGradGradGradGradGrad


 ----------------------------------------------------------------------

 Electric dipole moment (input orientation):
 (Debye = 10**-18 statcoulomb cm , SI units = C m)
                  (au)            (Debye)         (10**-30 SI)
   Tot        0.395404D-01      0.100502D+00      0.335238D+00
   x          0.395404D-01      0.100502D+00      0.335238D+00
   y          0.000000D+00      0.000000D+00      0.000000D+00
   z          0.000000D+00      0.000000D+00      0.000000D+00

 Dipole polarizability, Alpha (input orientation).
 (esu units = cm**3 , SI units = C**2 m**2 J**-1)
 Alpha(0;0):
               (au)            (10**-24 esu)      (10**-40 SI)
   iso        0.461105D+01      0.683288D+00      0.760260D+00
   aniso      0.718769D+01      0.106511D+01      0.118509D+01
   xx         0.939552D+01      0.139227D+01      0.154911D+01
   yx         0.207869D-04      0.308029D-05      0.342729D-05
   yy         0.209146D+01      0.309923D+00      0.344835D+00
   zx         0.000000D+00      0.000000D+00      0.000000D+00
   zy         0.190761D+00      0.282678D-01      0.314522D-01
   zz         0.234618D+01      0.347667D+00      0.386832D+00

 ----------------------------------------------------------------------

 Dipole orientation:
     1          0.00000000          0.00000000          0.00000000
     1          0.00000056         -0.00000023         -1.51178090
     9         -0.00000206          0.00000085          5.57469207

 Electric dipole moment (dipole orientation):
 (Debye = 10**-18 statcoulomb cm , SI units = C m)
                  (au)            (Debye)         (10**-30 SI)
   Tot        0.395404D-01      0.100502D+00      0.335238D+00
   x          0.000000D+00      0.000000D+00      0.000000D+00
   y          0.000000D+00      0.000000D+00      0.000000D+00
   z          0.395404D-01      0.100502D+00      0.335238D+00

 Dipole polarizability, Alpha (dipole orientation).
 (esu units = cm**3 , SI units = C**2 m**2 J**-1)
 Alpha(0;0):
               (au)            (10**-24 esu)      (10**-40 SI)
   iso        0.461105D+01      0.683288D+00      0.760260D+00
   aniso      0.718769D+01      0.106511D+01      0.118509D+01
   xx         0.234618D+01      0.347667D+00      0.386832D+00
   yx        -0.190761D+00     -0.282678D-01     -0.314522D-01
   yy         0.209146D+01      0.309923D+00      0.344835D+00
   zx         0.000000D+00      0.000000D+00      0.000000D+00
   zy         0.218288D-04      0.323470D-05      0.359909D-05
   zz         0.939552D+01      0.139227D+01      0.154911D+01

 ----------------------------------------------------------------------
 Unable to Open any file for archive entry.
 1\1\GINC-DESKTOP-B3RIHJD\Freq\UB3LYP\6-311G(d,p)\F1H2(2)\GARYX\22-Aug-
 2025\0\\# sp b3lyp/6-311g** Force nosymm scf=(qc)\\Title Card Required
 \\0,2\H,0.,0.,0.\H,-0.8,0.,0.\F,2.95,0.,0.\\Version=ES64L-G16RevC.01\H
 F=-100.9325929\S2=0.751001\S2-1=0.\S2A=0.750001\RMSD=5.249e-09\RMSF=1.
 556e-02\ZeroPoint=0.0134806\Thermal=0.0167046\ETot=-100.9158883\HTot=-
 100.9149441\GTot=-100.9405855\Dipole=0.0395404,0.,0.\DipoleDeriv=0.029
 5813,0.0000064,-0.0000031,0.0000013,-0.0046804,-0.0000653,-0.0000009,-
 0.0000655,-0.0047684,-0.0057366,-0.0000003,0.0000001,-0.000001,-0.0019
 059,0.0000362,0.0000007,0.0000364,-0.0018577,-0.0238447,-0.0000061,0.0
 00003,-0.0000003,0.0065863,0.0000291,0.0000003,0.0000292,0.0066261\Pol
 ar=9.3955248,0.0000208,2.0914619,-0.0000085,0.1907608,2.3461761\Quadru
 pole=0.2556821,-0.3060155,0.0503334,0.0000008,0.0000015,0.2670005\PG=C
 *V [C*(H1H1F1)]\NImag=0\\0.26051940,-0.00000042,0.02279337,0.00000024,
 -0.00004753,0.02272304,-0.26036156,0.00000002,-0.00000002,0.26047099,0
 .00000032,-0.02255586,0.00002818,-0.00000002,0.02242819,-0.00000018,0.
 00002814,-0.02251829,0.00000001,-0.00001805,0.02240413,-0.00015784,0.0
 0000040,-0.00000021,-0.00010943,-0.00000031,0.00000016,0.00026727,0.00
 000009,-0.00023751,0.00001935,0.,0.00012768,-0.00001010,-0.00000009,0.
 00010983,-0.00000006,0.00001939,-0.00020475,0.,-0.00001013,0.00011417,
 0.00000005,-0.00000926,0.00009058\\0.03282268,0.,0.,-0.03318007,0.,0.,
 0.00035740,0.,0.\\\@
 The archive entry for this job was punched.


 ADVERTISING--  HE WHO HAS SOMETHING TO SELL AND GOES AND WHISPERS
                IN A WELL, IS NOT SO APT TO GET THE DOLLARS AS HE
                WHO CLIMBS A TREE AND HOLLERS.

                   -- FROM THE BACK OF A SUGAR PACKET
 Job cpu time:       0 days  0 hours 10 minutes 14.8 seconds.
 Elapsed time:       0 days  0 hours  1 minutes 22.0 seconds.
 File lengths (MBytes):  RWF=      6 Int=      0 D2E=      0 Chk=      1 Scr=      1
 Normal termination of Gaussian 16 at Fri Aug 22 19:11:03 2025.
