 Entering Gaussian System, Link 0=g16
 Initial command:
 /home/garyx/gaussian/g16/l1.exe "/tmp/gaussian_scratch/Gau-970609.inp" -scrdir="/tmp/gaussian_scratch/"
 Entering Link 1 = /home/garyx/gaussian/g16/l1.exe PID=    970611.
  
 Copyright (c) 1988-2019, Gaussian, Inc.  All Rights Reserved.
  
 This is part of the Gaussian(R) 16 program.  It is based on
 the Gaussian(R) 09 system (copyright 2009, Gaussian, Inc.),
 the Gaussian(R) 03 system (copyright 2003, Gaussian, Inc.),
 the Gaussian(R) 98 system (copyright 1998, Gaussian, Inc.),
 the Gaussian(R) 94 system (copyright 1995, Gaussian, Inc.),
 the Gaussian 92(TM) system (copyright 1992, Gaussian, Inc.),
 the Gaussian 90(TM) system (copyright 1990, Gaussian, Inc.),
 the Gaussian 88(TM) system (copyright 1988, Gaussian, Inc.),
 the Gaussian 86(TM) system (copyright 1986, Carnegie Mellon
 University), and the Gaussian 82(TM) system (copyright 1983,
 Carnegie Mellon University). Gaussian is a federally registered
 trademark of Gaussian, Inc.
  
 This software contains proprietary and confidential information,
 including trade secrets, belonging to Gaussian, Inc.
  
 This software is provided under written license and may be
 used, copied, transmitted, or stored only in accord with that
 written license.
  
 The following legend is applicable only to US Government
 contracts under FAR:
  
                    RESTRICTED RIGHTS LEGEND
  
 Use, reproduction and disclosure by the US Government is
 subject to restrictions as set forth in subparagraphs (a)
 and (c) of the Commercial Computer Software - Restricted
 Rights clause in FAR 52.227-19.
  
 Gaussian, Inc.
 340 Quinnipiac St., Bldg. 40, Wallingford CT 06492
  
  
 ---------------------------------------------------------------
 Warning -- This program may not be used in any manner that
 competes with the business of Gaussian, Inc. or will provide
 assistance to any competitor of Gaussian, Inc.  The licensee
 of this program is prohibited from giving any competitor of
 Gaussian, Inc. access to this program.  By using this program,
 the user acknowledges that Gaussian, Inc. is engaged in the
 business of creating and licensing software in the field of
 computational chemistry and represents and warrants to the
 licensee that it is not a competitor of Gaussian, Inc. and that
 it will not use this program in any manner prohibited above.
 ---------------------------------------------------------------
  

 Cite this work as:
 Gaussian 16, Revision C.01,
 M. J. Frisch, G. W. Trucks, H. B. Schlegel, G. E. Scuseria, 
 M. A. Robb, J. R. Cheeseman, G. Scalmani, V. Barone, 
 G. A. Petersson, H. Nakatsuji, X. Li, M. Caricato, A. V. Marenich, 
 J. Bloino, B. G. Janesko, R. Gomperts, B. Mennucci, H. P. Hratchian, 
 J. V. Ortiz, A. F. Izmaylov, J. L. Sonnenberg, D. Williams-Young, 
 F. Ding, F. Lipparini, F. Egidi, J. Goings, B. Peng, A. Petrone, 
 T. Henderson, D. Ranasinghe, V. G. Zakrzewski, J. Gao, N. Rega, 
 G. Zheng, W. Liang, M. Hada, M. Ehara, K. Toyota, R. Fukuda, 
 J. Hasegawa, M. Ishida, T. Nakajima, Y. Honda, O. Kitao, H. Nakai, 
 T. Vreven, K. Throssell, J. A. Montgomery, Jr., J. E. Peralta, 
 F. Ogliaro, M. J. Bearpark, J. J. Heyd, E. N. Brothers, K. N. Kudin, 
 V. N. Staroverov, T. A. Keith, R. Kobayashi, J. Normand, 
 K. Raghavachari, A. P. Rendell, J. C. Burant, S. S. Iyengar, 
 J. Tomasi, M. Cossi, J. M. Millam, M. Klene, C. Adamo, R. Cammi, 
 J. W. Ochterski, R. L. Martin, K. Morokuma, O. Farkas, 
 J. B. Foresman, and D. J. Fox, Gaussian, Inc., Wallingford CT, 2019.
 
 ******************************************
 Gaussian 16:  ES64L-G16RevC.01  3-Jul-2019
                22-Aug-2025 
 ******************************************
 %mem=10GB
 %nprocs=8
 Will use up to    8 processors via shared memory.
 -----------------------------------------
 # sp b3lyp/6-311g** Force nosymm scf=(qc)
 -----------------------------------------
 1/10=4,30=1,38=1/1,3;
 2/12=2,15=1,17=6,18=5,40=1/2;
 3/5=4,6=6,7=101,11=2,25=1,30=1,71=2,74=-5,140=1/1,2,3;
 4//1;
 5/5=2,8=3,38=5,98=1/8;
 8/6=4,10=90,11=11/1;
 11/6=1,8=1,9=11,15=111,16=1,31=1/1,2,10;
 10/6=1,31=1/2;
 6/7=2,8=2,9=2,10=2,28=1/1;
 7/8=1,10=1,25=1,30=1/1,2,3,16;
 1/10=4,30=1/3;
 99//99;
 -------------------
 Title Card Required
 -------------------
 Symbolic Z-matrix:
 Charge =  0 Multiplicity = 2
 H                     0.        0.        0. 
 H                    -2.05      0.        0. 
 F                     3.5       0.        0. 
 

 GradGradGradGradGradGradGradGradGradGradGradGradGradGradGradGradGradGrad
 Berny optimization.
 Initialization pass.
 Trust Radius=3.00D-01 FncErr=1.00D-07 GrdErr=1.00D-07 EigMax=2.50D+02 EigMin=1.00D-04
 Number of steps in this run=      2 maximum allowed number of steps=      2.
 GradGradGradGradGradGradGradGradGradGradGradGradGradGradGradGradGradGrad

                          Input orientation:                          
 ---------------------------------------------------------------------
 Center     Atomic      Atomic             Coordinates (Angstroms)
 Number     Number       Type             X           Y           Z
 ---------------------------------------------------------------------
      1          1           0        0.000000    0.000000    0.000000
      2          1           0       -2.050000    0.000000    0.000000
      3          9           0        3.500000    0.000000    0.000000
 ---------------------------------------------------------------------
                    Distance matrix (angstroms):
                    1          2          3
     1  H    0.000000
     2  H    2.050000   0.000000
     3  F    3.500000   5.550000   0.000000
 Symmetry turned off by external request.
 Stoichiometry    FH2(2)
 Framework group  C*V[C*(HHF)]
 Deg. of freedom     2
 Full point group                 C*V     NOp   4
 Rotational constants (GHZ):           0.0000000          12.8169106          12.8169106
 Standard basis: 6-311G(d,p) (5D, 7F)
    30 basis functions,    48 primitive gaussians,    31 cartesian basis functions
     6 alpha electrons        5 beta electrons
       nuclear repulsion energy         2.4770018312 Hartrees.
 NAtoms=    3 NActive=    3 NUniq=    3 SFac= 1.00D+00 NAtFMM=   60 NAOKFM=F Big=F
 Integral buffers will be    131072 words long.
 Raffenetti 2 integral format.
 Two-electron integral symmetry is turned off.
 One-electron integrals computed using PRISM.
 NBasis=    30 RedAO= T EigKep=  8.59D-02  NBF=    30
 NBsUse=    30 1.00D-06 EigRej= -1.00D+00 NBFU=    30
 ExpMin= 1.03D-01 ExpMax= 1.14D+04 ExpMxC= 1.72D+03 IAcc=3 IRadAn=         5 AccDes= 0.00D+00
 Harris functional with IExCor=  402 and IRadAn=       5 diagonalized for initial guess.
 HarFok:  IExCor=  402 AccDes= 0.00D+00 IRadAn=         5 IDoV= 1 UseB2=F ITyADJ=14
 ICtDFT=  3500011 ScaDFX=  1.000000  1.000000  1.000000  1.000000
 FoFCou: FMM=F IPFlag=           0 FMFlag=      100000 FMFlg1=           0
         NFxFlg=           0 DoJE=T BraDBF=F KetDBF=T FulRan=T
         wScrn=  0.000000 ICntrl=       500 IOpCl=  0 I1Cent=   200000004 NGrid=           0
         NMat0=    1 NMatS0=      1 NMatT0=    0 NMatD0=    1 NMtDS0=    0 NMtDT0=    0
 Symmetry not used in FoFCou.
 Initial guess <Sx>= 0.0000 <Sy>= 0.0000 <Sz>= 0.5000 <S**2>= 0.7500 S= 0.5000
 Keep R1 and R2 ints in memory in canonical form, NReq=7127049.
 Gradient too large for Newton-Raphson -- use scaled steepest descent instead.
  Beta Gap=    -0.601 HL deriv= 8.02D-15 Rot set to   3.54D-01
 Gradient too large for Newton-Raphson -- use scaled steepest descent instead.
 Gradient too large for Newton-Raphson -- use scaled steepest descent instead.
     Minimum is close to point  2 DX=  2.07D-02 DF= -1.08D-05 DXR=  2.52D-02 DFR=  6.37D-04 which will be used.
 Gradient too large for Newton-Raphson -- use scaled steepest descent instead.
 Gradient too large for Newton-Raphson -- use scaled steepest descent instead.
     Accept linear search using points  1 and  2.
 Gradient too large for Newton-Raphson -- use scaled steepest descent instead.
     Accept linear search using points  2 and  3.
 Gradient too large for Newton-Raphson -- use scaled steepest descent instead.
     Accept linear search using points  1 and  2.
 Gradient too large for Newton-Raphson -- use scaled steepest descent instead.
     Minimum is close to point  3 DX=  3.45D-02 DF= -1.03D-04 DXR=  2.79D-02 DFR=  2.25D-03 which will be used.
 Gradient too large for Newton-Raphson -- use scaled steepest descent instead.
     Accept linear search using points  1 and  2.
 Gradient too large for Newton-Raphson -- use scaled steepest descent instead.
     Accept linear search using points  1 and  2.
 Gradient too large for Newton-Raphson -- use scaled steepest descent instead.
 Gradient too large for Newton-Raphson -- use scaled steepest descent instead.
 Gradient too large for Newton-Raphson -- use scaled steepest descent instead.
 Gradient too large for Newton-Raphson -- use scaled steepest descent instead.
     Minimum is close to point  2 DX=  5.46D-02 DF= -3.16D-06 DXR=  5.72D-02 DFR=  3.28D-03 which will be used.
 Gradient too large for Newton-Raphson -- use scaled steepest descent instead.
     Minimum is close to point  2 DX=  9.73D-02 DF= -3.00D-06 DXR=  9.75D-02 DFR=  9.61D-03 which will be used.
 LinEq1:  Iter=  0 NonCon=     1 RMS=1.29D-03 Max=1.49D-02 NDo=     1
 AX will form     1 AO Fock derivatives at one time.
 LinEq1:  Iter=  1 NonCon=     1 RMS=4.99D-04 Max=4.64D-03 NDo=     1
 LinEq1:  Iter=  2 NonCon=     1 RMS=1.42D-04 Max=1.36D-03 NDo=     1
 LinEq1:  Iter=  3 NonCon=     1 RMS=6.46D-05 Max=5.74D-04 NDo=     1
 LinEq1:  Iter=  4 NonCon=     1 RMS=2.21D-05 Max=2.68D-04 NDo=     1
 LinEq1:  Iter=  5 NonCon=     1 RMS=9.24D-06 Max=8.47D-05 NDo=     1
 LinEq1:  Iter=  6 NonCon=     1 RMS=7.82D-07 Max=9.35D-06 NDo=     1
 LinEq1:  Iter=  7 NonCon=     1 RMS=4.35D-08 Max=3.86D-07 NDo=     1
 LinEq1:  Iter=  8 NonCon=     1 RMS=1.17D-08 Max=1.32D-07 NDo=     1
 LinEq1:  Iter=  9 NonCon=     0 RMS=1.30D-09 Max=9.30D-09 NDo=     1
 Linear equations converged to 1.640D-09 1.640D-08 after     9 iterations.
     Accept linear search using points  1 and  2.
 LinEq1:  Iter=  0 NonCon=     1 RMS=2.94D-04 Max=3.45D-03 NDo=     1
 LinEq1:  Iter=  1 NonCon=     1 RMS=1.09D-04 Max=1.16D-03 NDo=     1
 LinEq1:  Iter=  2 NonCon=     1 RMS=4.32D-05 Max=3.45D-04 NDo=     1
 LinEq1:  Iter=  3 NonCon=     1 RMS=1.58D-05 Max=1.37D-04 NDo=     1
 LinEq1:  Iter=  4 NonCon=     1 RMS=6.35D-06 Max=9.50D-05 NDo=     1
 LinEq1:  Iter=  5 NonCon=     1 RMS=1.72D-06 Max=1.52D-05 NDo=     1
 LinEq1:  Iter=  6 NonCon=     1 RMS=3.42D-07 Max=3.23D-06 NDo=     1
 LinEq1:  Iter=  7 NonCon=     1 RMS=2.62D-08 Max=2.01D-07 NDo=     1
 LinEq1:  Iter=  8 NonCon=     1 RMS=2.17D-09 Max=1.49D-08 NDo=     1
 LinEq1:  Iter=  9 NonCon=     0 RMS=4.01D-10 Max=3.73D-09 NDo=     1
 Linear equations converged to 1.640D-09 1.640D-08 after     9 iterations.
     Accept linear search using points  2 and  3.
     Minimum is close to point  3 DX= -1.05D-01 DF= -2.00D-08 DXR=  7.02D-02 DFR=  8.47D-04 which will be used.
 LinEq1:  Iter=  0 NonCon=     1 RMS=1.51D-04 Max=1.88D-03 NDo=     1
 LinEq1:  Iter=  1 NonCon=     1 RMS=5.41D-05 Max=4.34D-04 NDo=     1
 LinEq1:  Iter=  2 NonCon=     1 RMS=2.57D-05 Max=2.94D-04 NDo=     1
 LinEq1:  Iter=  3 NonCon=     1 RMS=1.61D-05 Max=1.59D-04 NDo=     1
 LinEq1:  Iter=  4 NonCon=     1 RMS=4.52D-06 Max=3.69D-05 NDo=     1
 LinEq1:  Iter=  5 NonCon=     1 RMS=8.11D-07 Max=9.76D-06 NDo=     1
 LinEq1:  Iter=  6 NonCon=     1 RMS=9.87D-08 Max=7.75D-07 NDo=     1
 LinEq1:  Iter=  7 NonCon=     1 RMS=9.03D-09 Max=6.43D-08 NDo=     1
 LinEq1:  Iter=  8 NonCon=     1 RMS=2.15D-09 Max=2.02D-08 NDo=     1
 LinEq1:  Iter=  9 NonCon=     0 RMS=4.29D-10 Max=4.78D-09 NDo=     1
 Linear equations converged to 1.640D-09 1.640D-08 after     9 iterations.
 Incorrect curvature in search direction -- initial direction reversed.
     Accept linear search using points  2 and  3.
 LinEq1:  Iter=  0 NonCon=     1 RMS=3.63D-04 Max=4.04D-03 NDo=     1
 LinEq1:  Iter=  1 NonCon=     1 RMS=1.08D-04 Max=6.39D-04 NDo=     1
 LinEq1:  Iter=  2 NonCon=     1 RMS=5.68D-05 Max=6.06D-04 NDo=     1
 LinEq1:  Iter=  3 NonCon=     1 RMS=2.79D-05 Max=2.76D-04 NDo=     1
 LinEq1:  Iter=  4 NonCon=     1 RMS=1.10D-05 Max=9.15D-05 NDo=     1
 LinEq1:  Iter=  5 NonCon=     1 RMS=2.32D-06 Max=2.20D-05 NDo=     1
 LinEq1:  Iter=  6 NonCon=     1 RMS=2.37D-07 Max=1.63D-06 NDo=     1
 LinEq1:  Iter=  7 NonCon=     1 RMS=1.80D-08 Max=1.41D-07 NDo=     1
 LinEq1:  Iter=  8 NonCon=     1 RMS=4.12D-09 Max=3.85D-08 NDo=     1
 LinEq1:  Iter=  9 NonCon=     0 RMS=7.37D-10 Max=8.98D-09 NDo=     1
 Linear equations converged to 1.640D-09 1.640D-08 after     9 iterations.
 LinEq1:  Iter=  0 NonCon=     1 RMS=3.25D-04 Max=3.30D-03 NDo=     1
 LinEq1:  Iter=  1 NonCon=     1 RMS=9.24D-05 Max=5.77D-04 NDo=     1
 LinEq1:  Iter=  2 NonCon=     1 RMS=6.30D-05 Max=6.67D-04 NDo=     1
 LinEq1:  Iter=  3 NonCon=     1 RMS=2.54D-05 Max=2.44D-04 NDo=     1
 LinEq1:  Iter=  4 NonCon=     1 RMS=1.11D-05 Max=1.19D-04 NDo=     1
 LinEq1:  Iter=  5 NonCon=     1 RMS=2.35D-06 Max=1.96D-05 NDo=     1
 LinEq1:  Iter=  6 NonCon=     1 RMS=3.06D-07 Max=2.54D-06 NDo=     1
 LinEq1:  Iter=  7 NonCon=     1 RMS=2.09D-08 Max=1.51D-07 NDo=     1
 LinEq1:  Iter=  8 NonCon=     1 RMS=4.75D-09 Max=4.89D-08 NDo=     1
 LinEq1:  Iter=  9 NonCon=     0 RMS=7.41D-10 Max=8.38D-09 NDo=     1
 Linear equations converged to 1.640D-09 1.640D-08 after     9 iterations.
     Accept linear search using points  1 and  2.
 LinEq1:  Iter=  0 NonCon=     1 RMS=1.85D-04 Max=1.33D-03 NDo=     1
 LinEq1:  Iter=  1 NonCon=     1 RMS=4.52D-05 Max=5.29D-04 NDo=     1
 LinEq1:  Iter=  2 NonCon=     1 RMS=3.55D-05 Max=3.08D-04 NDo=     1
 LinEq1:  Iter=  3 NonCon=     1 RMS=1.49D-05 Max=1.22D-04 NDo=     1
 LinEq1:  Iter=  4 NonCon=     1 RMS=3.45D-06 Max=3.29D-05 NDo=     1
 LinEq1:  Iter=  5 NonCon=     1 RMS=7.76D-07 Max=9.05D-06 NDo=     1
 LinEq1:  Iter=  6 NonCon=     1 RMS=1.57D-07 Max=1.35D-06 NDo=     1
 LinEq1:  Iter=  7 NonCon=     1 RMS=2.12D-08 Max=1.50D-07 NDo=     1
 LinEq1:  Iter=  8 NonCon=     1 RMS=2.15D-09 Max=1.59D-08 NDo=     1
 LinEq1:  Iter=  9 NonCon=     0 RMS=7.12D-10 Max=7.48D-09 NDo=     1
 Linear equations converged to 1.640D-09 1.640D-08 after     9 iterations.
     Minimum is close to point  3 DX=  1.09D-01 DF= -3.42D-07 DXR=  6.77D-02 DFR=  6.06D-03 which will be used.
 LinEq1:  Iter=  0 NonCon=     1 RMS=1.07D-04 Max=7.82D-04 NDo=     1
 LinEq1:  Iter=  1 NonCon=     1 RMS=2.56D-05 Max=2.85D-04 NDo=     1
 LinEq1:  Iter=  2 NonCon=     1 RMS=1.05D-05 Max=8.44D-05 NDo=     1
 LinEq1:  Iter=  3 NonCon=     1 RMS=1.19D-05 Max=1.43D-04 NDo=     1
 LinEq1:  Iter=  4 NonCon=     1 RMS=1.83D-06 Max=1.48D-05 NDo=     1
 LinEq1:  Iter=  5 NonCon=     1 RMS=3.19D-07 Max=2.09D-06 NDo=     1
 LinEq1:  Iter=  6 NonCon=     1 RMS=7.59D-08 Max=8.73D-07 NDo=     1
 LinEq1:  Iter=  7 NonCon=     1 RMS=1.25D-08 Max=9.68D-08 NDo=     1
 LinEq1:  Iter=  8 NonCon=     0 RMS=1.63D-09 Max=1.50D-08 NDo=     1
 Linear equations converged to 1.640D-09 1.640D-08 after     8 iterations.
     Minimum is close to point  3 DX=  3.26D-02 DF= -1.94D-08 DXR=  2.13D-02 DFR=  6.61D-04 which will be used.
 LinEq1:  Iter=  0 NonCon=     1 RMS=8.58D-05 Max=7.21D-04 NDo=     1
 LinEq1:  Iter=  1 NonCon=     1 RMS=2.03D-05 Max=2.20D-04 NDo=     1
 LinEq1:  Iter=  2 NonCon=     1 RMS=2.19D-05 Max=2.29D-04 NDo=     1
 LinEq1:  Iter=  3 NonCon=     1 RMS=8.06D-06 Max=6.97D-05 NDo=     1
 LinEq1:  Iter=  4 NonCon=     1 RMS=2.25D-06 Max=3.04D-05 NDo=     1
 LinEq1:  Iter=  5 NonCon=     1 RMS=7.31D-07 Max=8.60D-06 NDo=     1
 LinEq1:  Iter=  6 NonCon=     1 RMS=9.18D-08 Max=5.64D-07 NDo=     1
 LinEq1:  Iter=  7 NonCon=     1 RMS=1.00D-08 Max=6.29D-08 NDo=     1
 LinEq1:  Iter=  8 NonCon=     1 RMS=1.80D-09 Max=2.06D-08 NDo=     1
 LinEq1:  Iter=  9 NonCon=     0 RMS=3.73D-10 Max=2.84D-09 NDo=     1
 Linear equations converged to 1.640D-09 1.640D-08 after     9 iterations.
 LinEq1:  Iter=  0 NonCon=     1 RMS=5.13D-05 Max=4.22D-04 NDo=     1
 LinEq1:  Iter=  1 NonCon=     1 RMS=7.10D-06 Max=5.99D-05 NDo=     1
 LinEq1:  Iter=  2 NonCon=     1 RMS=2.82D-06 Max=3.16D-05 NDo=     1
 LinEq1:  Iter=  3 NonCon=     1 RMS=2.85D-06 Max=2.83D-05 NDo=     1
 LinEq1:  Iter=  4 NonCon=     1 RMS=8.58D-07 Max=9.86D-06 NDo=     1
 LinEq1:  Iter=  5 NonCon=     1 RMS=2.81D-07 Max=3.02D-06 NDo=     1
 LinEq1:  Iter=  6 NonCon=     1 RMS=7.16D-08 Max=5.86D-07 NDo=     1
 LinEq1:  Iter=  7 NonCon=     1 RMS=4.76D-09 Max=4.70D-08 NDo=     1
 LinEq1:  Iter=  8 NonCon=     0 RMS=4.94D-10 Max=4.46D-09 NDo=     1
 Linear equations converged to 1.640D-09 1.640D-08 after     8 iterations.
 LinEq1:  Iter=  0 NonCon=     1 RMS=1.61D-05 Max=1.29D-04 NDo=     1
 LinEq1:  Iter=  1 NonCon=     1 RMS=3.27D-06 Max=2.45D-05 NDo=     1
 LinEq1:  Iter=  2 NonCon=     1 RMS=3.29D-06 Max=3.66D-05 NDo=     1
 LinEq1:  Iter=  3 NonCon=     1 RMS=1.25D-06 Max=1.34D-05 NDo=     1
 LinEq1:  Iter=  4 NonCon=     1 RMS=4.88D-07 Max=5.92D-06 NDo=     1
 LinEq1:  Iter=  5 NonCon=     1 RMS=1.46D-07 Max=1.63D-06 NDo=     1
 LinEq1:  Iter=  6 NonCon=     1 RMS=1.97D-08 Max=1.23D-07 NDo=     1
 LinEq1:  Iter=  7 NonCon=     1 RMS=2.38D-09 Max=1.21D-08 NDo=     1
 LinEq1:  Iter=  8 NonCon=     0 RMS=4.22D-10 Max=1.88D-09 NDo=     1
 Linear equations converged to 1.640D-09 1.640D-08 after     8 iterations.
 LinEq1:  Iter=  0 NonCon=     1 RMS=2.38D-06 Max=1.85D-05 NDo=     1
 LinEq1:  Iter=  1 NonCon=     1 RMS=5.25D-07 Max=4.78D-06 NDo=     1
 LinEq1:  Iter=  2 NonCon=     1 RMS=3.73D-07 Max=2.98D-06 NDo=     1
 LinEq1:  Iter=  3 NonCon=     1 RMS=1.75D-07 Max=1.82D-06 NDo=     1
 LinEq1:  Iter=  4 NonCon=     1 RMS=7.07D-08 Max=8.27D-07 NDo=     1
 LinEq1:  Iter=  5 NonCon=     1 RMS=1.87D-08 Max=2.05D-07 NDo=     1
 LinEq1:  Iter=  6 NonCon=     1 RMS=3.24D-09 Max=1.87D-08 NDo=     1
 LinEq1:  Iter=  7 NonCon=     0 RMS=5.77D-10 Max=3.54D-09 NDo=     1
 Linear equations converged to 1.070D-09 1.070D-08 after     7 iterations.
     Accept linear search using points  1 and  2.
     Minimum is close to point  2 DX= -9.07D-02 DF= -5.33D-11 DXR=  9.98D-02 DFR=  1.03D-02 which will be used.
 LinEq1:  Iter=  0 NonCon=     1 RMS=6.38D-07 Max=4.28D-06 NDo=     1
 LinEq1:  Iter=  1 NonCon=     1 RMS=1.84D-07 Max=2.23D-06 NDo=     1
 LinEq1:  Iter=  2 NonCon=     1 RMS=6.09D-08 Max=4.45D-07 NDo=     1
 LinEq1:  Iter=  3 NonCon=     1 RMS=3.90D-08 Max=3.71D-07 NDo=     1
 LinEq1:  Iter=  4 NonCon=     1 RMS=1.99D-08 Max=2.07D-07 NDo=     1
 LinEq1:  Iter=  5 NonCon=     1 RMS=4.93D-09 Max=4.12D-08 NDo=     1
 LinEq1:  Iter=  6 NonCon=     1 RMS=1.22D-09 Max=1.43D-08 NDo=     1
 LinEq1:  Iter=  7 NonCon=     1 RMS=3.12D-10 Max=3.51D-09 NDo=     1
 LinEq1:  Iter=  8 NonCon=     0 RMS=4.11D-11 Max=2.42D-10 NDo=     1
 Linear equations converged to 3.262D-10 3.262D-09 after     8 iterations.
 LinEq1:  Iter=  0 NonCon=     1 RMS=9.83D-08 Max=5.72D-07 NDo=     1
 LinEq1:  Iter=  1 NonCon=     1 RMS=5.76D-08 Max=7.05D-07 NDo=     1
 LinEq1:  Iter=  2 NonCon=     1 RMS=3.20D-08 Max=4.15D-07 NDo=     1
 LinEq1:  Iter=  3 NonCon=     1 RMS=1.49D-08 Max=1.16D-07 NDo=     1
 LinEq1:  Iter=  4 NonCon=     1 RMS=5.81D-09 Max=4.49D-08 NDo=     1
 LinEq1:  Iter=  5 NonCon=     1 RMS=1.37D-09 Max=1.09D-08 NDo=     1
 LinEq1:  Iter=  6 NonCon=     1 RMS=1.90D-10 Max=1.42D-09 NDo=     1
 LinEq1:  Iter=  7 NonCon=     1 RMS=4.85D-11 Max=4.66D-10 NDo=     1
 LinEq1:  Iter=  8 NonCon=     0 RMS=7.10D-12 Max=4.78D-11 NDo=     1
 Linear equations converged to 3.930D-11 3.930D-10 after     8 iterations.
 LinEq1:  Iter=  0 NonCon=     1 RMS=7.96D-09 Max=5.26D-08 NDo=     1
 LinEq1:  Iter=  1 NonCon=     1 RMS=3.87D-09 Max=4.42D-08 NDo=     1
 LinEq1:  Iter=  2 NonCon=     1 RMS=1.31D-09 Max=8.45D-09 NDo=     1
 LinEq1:  Iter=  3 NonCon=     1 RMS=8.55D-10 Max=9.48D-09 NDo=     1
 LinEq1:  Iter=  4 NonCon=     1 RMS=3.90D-10 Max=3.84D-09 NDo=     1
 LinEq1:  Iter=  5 NonCon=     1 RMS=8.60D-11 Max=4.74D-10 NDo=     1
 LinEq1:  Iter=  6 NonCon=     1 RMS=1.66D-11 Max=1.15D-10 NDo=     1
 LinEq1:  Iter=  7 NonCon=     0 RMS=2.06D-12 Max=1.91D-11 NDo=     1
 Linear equations converged to 4.070D-12 4.070D-11 after     7 iterations.
 SCF Done:  E(UB3LYP) =  -100.772575294     a.u. after   30 cycles
            Convg  =    0.1287D-06                   191 Fock formations.
              S**2 =  1.4838                  -V/T =  2.0022
 <Sx>= 0.0000 <Sy>= 0.0000 <Sz>= 0.5000 <S**2>= 1.4838 S= 0.8167
 <L.S>=  0.00000000000    
 Annihilation of the first spin contaminant:
 S**2 before annihilation     1.4838,   after     0.7520
 DoSCS=F DFT=T ScalE2(SS,OS)=  1.000000  1.000000
 Range of M.O.s used for correlation:     1    30
 NBasis=    30 NAE=     6 NBE=     5 NFC=     0 NFV=     0
 NROrb=     30 NOA=     6 NOB=     5 NVA=    24 NVB=    25

 **** Warning!!: The smallest beta delta epsilon is  0.75331692D-01

 Symmetrizing basis deriv contribution to polar:
 IMax=3 JMax=2 DiffMx= 0.00D+00
 G2DrvN: will do     4 centers at a time, making    1 passes.
 Calling FoFCou, ICntrl=  3107 FMM=F I1Cent=   0 AccDes= 0.00D+00.
 End of G2Drv F.D. properties file   721 does not exist.
 End of G2Drv F.D. properties file   722 does not exist.
 End of G2Drv F.D. properties file   788 does not exist.
          IDoAtm=111
          Differentiating once with respect to electric field.
                with respect to dipole field.
          Differentiating once with respect to nuclear coordinates.
 Keep R1 and R2 ints in memory in canonical form, NReq=7101519.
          There are    12 degrees of freedom in the 1st order CPHF.  IDoFFX=6 NUNeed=     3.
      9 vectors produced by pass  0 Test12= 2.24D-15 8.33D-09 XBig12= 1.36D+02 9.53D+00.
 AX will form     9 AO Fock derivatives at one time.
      9 vectors produced by pass  1 Test12= 2.24D-15 8.33D-09 XBig12= 1.73D+00 8.34D-01.
      9 vectors produced by pass  2 Test12= 2.24D-15 8.33D-09 XBig12= 7.50D-02 1.43D-01.
      9 vectors produced by pass  3 Test12= 2.24D-15 8.33D-09 XBig12= 3.30D-04 1.29D-02.
      5 vectors produced by pass  4 Test12= 2.24D-15 8.33D-09 XBig12= 3.63D-06 8.80D-04.
      5 vectors produced by pass  5 Test12= 2.24D-15 8.33D-09 XBig12= 4.87D-09 3.72D-05.
      1 vectors produced by pass  6 Test12= 2.24D-15 8.33D-09 XBig12= 1.01D-11 1.39D-06.
      1 vectors produced by pass  7 Test12= 2.24D-15 8.33D-09 XBig12= 7.79D-15 3.31D-08.
 InvSVY:  IOpt=1 It=  1 EMax= 1.50D-14
 Solved reduced A of dimension    48 with     9 vectors.
 Isotropic polarizability for W=    0.000000       15.54 Bohr**3.
 End of Minotr F.D. properties file   721 does not exist.
 End of Minotr F.D. properties file   722 does not exist.
 End of Minotr F.D. properties file   788 does not exist.

 **********************************************************************

            Population analysis using the SCF Density.

 **********************************************************************

 Alpha  occ. eigenvalues --  -24.75566  -1.21516  -0.54689  -0.45922  -0.45922
 Alpha  occ. eigenvalues --   -0.33055
 Alpha virt. eigenvalues --   -0.10917   0.25884   0.32508   0.87598   0.91356
 Alpha virt. eigenvalues --    0.91356   1.01726   1.18954   1.24903   1.24903
 Alpha virt. eigenvalues --    1.38144   1.38144   1.49302   2.13193   2.36118
 Alpha virt. eigenvalues --    3.65569   3.67754   3.67754   3.74731   3.74732
 Alpha virt. eigenvalues --    5.86968   5.94140   5.94140  66.47409
  Beta  occ. eigenvalues --  -24.72445  -1.12547  -0.42794  -0.42794  -0.33153
  Beta virt. eigenvalues --   -0.25620  -0.10640   0.25776   0.32976   0.92848
  Beta virt. eigenvalues --    0.92848   0.96773   1.05778   1.18904   1.24775
  Beta virt. eigenvalues --    1.24775   1.38536   1.38536   1.49593   2.13770
  Beta virt. eigenvalues --    2.35904   3.76345   3.76345   3.77466   3.77466
  Beta virt. eigenvalues --    3.79476   5.96784   5.96784   6.00967  66.50516
          Condensed to atoms (all electrons):
               1          2          3
     1  H    0.925583   0.069280   0.001625
     2  H    0.069280   0.925151  -0.000001
     3  F    0.001625  -0.000001   9.007456
          Atomic-Atomic Spin Densities.
               1          2          3
     1  H   -0.870263   0.002367  -0.000560
     2  H    0.002367   0.876598  -0.000003
     3  F   -0.000560  -0.000003   0.990059
 Mulliken charges and spin densities:
               1          2
     1  H    0.003512  -0.868456
     2  H    0.005569   0.878961
     3  F   -0.009080   0.989495
 Sum of Mulliken charges =   0.00000   1.00000
 Mulliken charges and spin densities with hydrogens summed into heavy atoms:
               1          2
     3  F    0.000000   1.000000
 APT charges:
               1
     1  H   -0.038103
     2  H    0.006847
     3  F    0.031256
 Sum of APT charges =   0.00000
 APT charges with hydrogens summed into heavy atoms:
               1
     3  F    0.000000
 Electronic spatial extent (au):  <R**2>=            425.1545
 Charge=              0.0000 electrons
 Dipole moment (field-independent basis, Debye):
    X=             -0.2170    Y=              0.0000    Z=             -0.0000  Tot=              0.2170
 Quadrupole moment (field-independent basis, Debye-Ang):
   XX=             -6.6709   YY=             -7.7189   ZZ=             -7.7189
   XY=              0.0000   XZ=             -0.0000   YZ=             -0.0000
 Traceless Quadrupole moment (field-independent basis, Debye-Ang):
   XX=              0.6986   YY=             -0.3493   ZZ=             -0.3493
   XY=              0.0000   XZ=             -0.0000   YZ=             -0.0000
 Octapole moment (field-independent basis, Debye-Ang**2):
  XXX=            -37.0364  YYY=              0.0000  ZZZ=             -0.0000  XYY=            -14.0330
  XXY=              0.0000  XXZ=             -0.0000  XZZ=            -14.0330  YZZ=              0.0000
  YYZ=             -0.0000  XYZ=             -0.0000
 Hexadecapole moment (field-independent basis, Debye-Ang**3):
 XXXX=           -334.2879 YYYY=             -6.5645 ZZZZ=             -6.5645 XXXY=              0.0000
 XXXZ=             -0.0000 YYYX=              0.0000 YYYZ=             -0.0000 ZZZX=             -0.0000
 ZZZY=             -0.0000 XXYY=            -67.1539 XXZZ=            -67.1539 YYZZ=             -2.1882
 XXYZ=             -0.0000 YYXZ=             -0.0000 ZZXY=              0.0000
 N-N= 2.477001831245D+00 E-N=-2.458688875089D+02  KE= 1.005494241165D+02
  Exact polarizability:      42.641      -0.000       1.995       0.000      -0.000       1.995
 Approx polarizability:      36.052       0.000       1.935      -0.000       0.000       1.935
                          Isotropic Fermi Contact Couplings
        Atom                 a.u.       MegaHertz       Gauss      10(-4) cm-1
     1  H(1)              -0.25886   -1157.05330    -412.86539    -385.95144
     2  H(1)               0.26175    1169.98957     417.48137     390.26651
     3  F(19)              0.03016     126.88145      45.27446      42.32310
 --------------------------------------------------------
       Center         ----  Spin Dipole Couplings  ----
                      3XX-RR        3YY-RR        3ZZ-RR
 --------------------------------------------------------
     1   Atom        0.036581     -0.018291     -0.018291
     2   Atom       -0.026627      0.013313      0.013313
     3   Atom        6.227607     -3.113803     -3.113803
 --------------------------------------------------------
                        XY            XZ            YZ
 --------------------------------------------------------
     1   Atom       -0.000000      0.000000     -0.000000
     2   Atom       -0.000000      0.000000     -0.000000
     3   Atom        0.000013     -0.000009      0.000000
 --------------------------------------------------------


 ---------------------------------------------------------------------------------
              Anisotropic Spin Dipole Couplings in Principal Axis System
 ---------------------------------------------------------------------------------

       Atom             a.u.   MegaHertz   Gauss  10(-4) cm-1        Axes

              Baa    -0.0183    -9.759    -3.482    -3.255  0.0000  0.6068  0.7949
     1 H(1)   Bbb    -0.0183    -9.759    -3.482    -3.255  0.0000  0.7949 -0.6068
              Bcc     0.0366    19.518     6.965     6.511  1.0000 -0.0000  0.0000
 
              Baa    -0.0266   -14.207    -5.069    -4.739  1.0000  0.0000 -0.0000
     2 H(1)   Bbb     0.0133     7.103     2.535     2.369 -0.0000  0.5975  0.8019
              Bcc     0.0133     7.103     2.535     2.369 -0.0000  0.8019 -0.5975
 
              Baa    -3.1138 -1563.832  -558.014  -521.638 -0.0000  0.8039 -0.5948
     3 F(19)  Bbb    -3.1138 -1563.832  -558.014  -521.638 -0.0000  0.5948  0.8039
              Bcc     6.2276  3127.664  1116.028  1043.276  1.0000  0.0000 -0.0000
 

 ---------------------------------------------------------------------------------

 Calling FoFJK, ICntrl=    100127 FMM=F ISym2X=0 I1Cent= 0 IOpClX= 1 NMat=1 NMatS=1 NMatT=0.
 Full mass-weighted force constant matrix:
 Low frequencies ----1266.4753 -134.7018   -0.0010   -0.0004    0.0006   41.9242
 Low frequencies ---   41.9242  521.1390  521.1390
 ******    2 imaginary frequencies (negative Signs) ****** 
 Diagonal vibrational polarizability:
       10.2202396       0.0002191       0.0002191
 Harmonic frequencies (cm**-1), IR intensities (KM/Mole), Raman scattering
 activities (A**4/AMU), depolarization ratios for plane and unpolarized
 incident light, reduced masses (AMU), force constants (mDyne/A),
 and normal coordinates:
                      1                      2                      3
                      A                      A                      A
 Frequencies --  -1266.4753              -134.7018               507.6793
 Red. masses --      1.0078                 1.1085                 1.0128
 Frc consts  --      0.9524                 0.0119                 0.1538
 IR Inten    --      8.9050                 6.7901                 0.0021
  Atom  AN      X      Y      Z        X      Y      Z        X      Y      Z
     1   1     0.72  -0.00   0.00     0.69  -0.00   0.00     0.00   0.70  -0.47
     2   1    -0.70   0.00  -0.00     0.72   0.00  -0.00     0.00  -0.44   0.30
     3   9    -0.00   0.00  -0.00    -0.07   0.00  -0.00    -0.00  -0.01   0.01
                      4
                      A
 Frequencies --    507.6793
 Red. masses --      1.0128
 Frc consts  --      0.1538
 IR Inten    --      0.0021
  Atom  AN      X      Y      Z
     1   1    -0.00   0.47   0.70
     2   1     0.00  -0.30  -0.44
     3   9     0.00  -0.01  -0.01

 -------------------
 - Thermochemistry -
 -------------------
 Temperature   298.150 Kelvin.  Pressure   1.00000 Atm.
 Atom     1 has atomic number  1 and mass   1.00783
 Atom     2 has atomic number  1 and mass   1.00783
 Atom     3 has atomic number  9 and mass  18.99840
 Molecular mass:    21.01405 amu.
 Principal axes and moments of inertia in atomic units:
                           1         2         3
     Eigenvalues --     0.00000 140.80938 140.80938
           X            1.00000  -0.00000   0.00000
           Y            0.00000   1.00000   0.00000
           Z            0.00000   0.00000   1.00000
 This molecule is a prolate symmetric top.
 Rotational symmetry number  1.
 Rotational temperature (Kelvin)      0.61511
 Rotational constant (GHZ):          12.816911
    2 imaginary frequencies ignored.
 Zero-point vibrational energy       6073.2 (Joules/Mol)
                                    1.45153 (Kcal/Mol)
 Warning -- explicit consideration of   2 degrees of freedom as
           vibrations may cause significant error
 Vibrational temperatures:    730.44   730.44
          (Kelvin)
 
 Zero-point correction=                           0.002313 (Hartree/Particle)
 Thermal correction to Energy=                    0.005111
 Thermal correction to Enthalpy=                  0.006055
 Thermal correction to Gibbs Free Energy=        -0.018652
 Sum of electronic and zero-point Energies=           -100.770262
 Sum of electronic and thermal Energies=              -100.767465
 Sum of electronic and thermal Enthalpies=            -100.766521
 Sum of electronic and thermal Free Energies=         -100.791227
 
                     E (Thermal)             CV                S
                      KCal/Mol        Cal/Mol-Kelvin    Cal/Mol-Kelvin
 Total                    3.207              7.434             51.999
 Electronic               0.000              0.000              1.377
 Translational            0.889              2.981             35.068
 Rotational               0.592              1.987             14.275
 Vibrational              1.726              2.466              1.278
 Vibration     1          0.863              1.233              0.639
 Vibration     2          0.863              1.233              0.639
                       Q            Log10(Q)             Ln(Q)
 Total Bot       0.379441D+09          8.579145         19.754211
 Total V=0       0.439665D+10          9.643122         22.204110
 Vib (Bot)       0.103375D+00         -0.985583         -2.269388
 Vib (Bot)    1  0.321521D+00         -0.492791         -1.134694
 Vib (Bot)    2  0.321521D+00         -0.492791         -1.134694
 Vib (V=0)       0.119783D+01          0.078395          0.180511
 Vib (V=0)    1  0.109445D+01          0.039197          0.090256
 Vib (V=0)    2  0.109445D+01          0.039197          0.090256
 Electronic      0.200000D+01          0.301030          0.693147
 Translational   0.378633D+07          6.578219         15.146908
 Rotational      0.484706D+03          2.685479          6.183543
 -------------------------------------------------------------------
 Center     Atomic                   Forces (Hartrees/Bohr)
 Number     Number              X              Y              Z
 -------------------------------------------------------------------
      1        1          -0.019126887   -0.000000000    0.000000000
      2        1           0.019976680   -0.000000000    0.000000000
      3        9          -0.000849792    0.000000000   -0.000000000
 -------------------------------------------------------------------
 Cartesian Forces:  Max     0.019976680 RMS     0.009223326

 GradGradGradGradGradGradGradGradGradGradGradGradGradGradGradGradGradGrad
 Berny optimization.
 Search for a local minimum.
 Step number   1 out of a maximum of    2
 All quantities printed in internal units (Hartrees-Bohrs-Radians)
 Second derivative matrix not updated -- analytic derivatives used.
 The second derivative matrix:
                          X1        Y1        Z1        X2        Y2
           X1          -0.03175
           Y1           0.00000   0.00526
           Z1          -0.00000   0.00000   0.00526
           X2           0.03026  -0.00000   0.00000  -0.03005
           Y2           0.00000  -0.00515   0.00000  -0.00000   0.00516
           Z2          -0.00000   0.00000  -0.00515   0.00000   0.00000
           X3           0.00149  -0.00000   0.00000  -0.00021  -0.00000
           Y3          -0.00000  -0.00011  -0.00000   0.00000  -0.00001
           Z3           0.00000  -0.00000  -0.00011  -0.00000  -0.00000
                          Z2        X3        Y3        Z3
           Z2           0.00516
           X3           0.00000  -0.00128
           Y3          -0.00000   0.00000   0.00012
           Z3          -0.00001  -0.00000   0.00000   0.00012
 ITU=  0
     Eigenvalues ---   -0.06119  -0.00142   0.00979   0.00979
 Eigenvalue     1 is  -6.12D-02 should be greater than     0.000000 Eigenvector:
                          X1        X2        X3        Y1        Z1
   1                    0.72067  -0.69322  -0.00915  -0.00000   0.00000
                          Y2        Z2        Y3        Z3
   1                    0.00000  -0.00000   0.00000  -0.00000
 Eigenvalue     2 is  -1.42D-03 should be greater than     0.000000 Eigenvector:
                          X2        X1        X3        Y1        Z1
   1                    0.65462   0.62428  -0.42630  -0.00000   0.00000
                          Y2        Z2        Y3        Z3
   1                    0.00000  -0.00000   0.00000  -0.00000
 Quadratic step=1.147D+00 exceeds max=3.000D-01 adjusted using Lamda=-3.189D-02.
 Angle between NR and scaled steps=  58.20 degrees.
 Angle between quadratic step and forces=   5.62 degrees.
 Linear search not attempted -- first point.
 B after Tr=    -0.010979    0.000000    0.000000
         Rot=    0.747295   -0.664493    0.000000   -0.000000 Ang= -83.29 deg.
 Variable       Old X    -DE/DX   Delta X   Delta X   Delta X     New X
                                 (Linear)    (Quad)   (Total)
    X1        0.00000  -0.01913   0.00000  -0.18580  -0.19678  -0.19678
    Y1        0.00000  -0.00000   0.00000  -0.00000  -0.00000  -0.00000
    Z1        0.00000   0.00000   0.00000   0.00000  -0.00000  -0.00000
    X2       -3.87394   0.01998   0.00000   0.23521   0.22423  -3.64971
    Y2        0.00000  -0.00000   0.00000   0.00000   0.00000   0.00000
    Z2        0.00000   0.00000   0.00000  -0.00000   0.00000   0.00000
    X3        6.61404  -0.00085   0.00000  -0.01647  -0.02745   6.58659
    Y3        0.00000   0.00000   0.00000   0.00000   0.00000   0.00000
    Z3        0.00000  -0.00000   0.00000  -0.00000   0.00000   0.00000
         Item               Value     Threshold  Converged?
 Maximum Force            0.019977     0.000450     NO 
 RMS     Force            0.009223     0.000300     NO 
 Maximum Displacement     0.224227     0.001800     NO 
 RMS     Displacement     0.099863     0.001200     NO 
 Predicted change in Energy=-1.096292D-02
 GradGradGradGradGradGradGradGradGradGradGradGradGradGradGradGradGradGrad


 ----------------------------------------------------------------------

 Electric dipole moment (input orientation):
 (Debye = 10**-18 statcoulomb cm , SI units = C m)
                  (au)            (Debye)         (10**-30 SI)
   Tot        0.853660D-01      0.216979D+00      0.723763D+00
   x         -0.853660D-01     -0.216979D+00     -0.723763D+00
   y          0.000000D+00      0.000000D+00      0.000000D+00
   z          0.000000D+00      0.000000D+00      0.000000D+00

 Dipole polarizability, Alpha (input orientation).
 (esu units = cm**3 , SI units = C**2 m**2 J**-1)
 Alpha(0;0):
               (au)            (10**-24 esu)      (10**-40 SI)
   iso        0.155439D+02      0.230337D+01      0.256285D+01
   aniso      0.406454D+02      0.602303D+01      0.670153D+01
   xx         0.426409D+02      0.631873D+01      0.703053D+01
   yx         0.000000D+00      0.000000D+00      0.000000D+00
   yy         0.199544D+01      0.295694D+00      0.329004D+00
   zx         0.000000D+00      0.000000D+00      0.000000D+00
   zy         0.000000D+00      0.000000D+00      0.000000D+00
   zz         0.199544D+01      0.295694D+00      0.329004D+00

 ----------------------------------------------------------------------

 Dipole orientation:
     1          0.00000000          0.00000000          0.00000000
     1          0.00000000         -0.00000001          3.87393856
     9         -0.00000000          0.00000002         -6.61404144

 Electric dipole moment (dipole orientation):
 (Debye = 10**-18 statcoulomb cm , SI units = C m)
                  (au)            (Debye)         (10**-30 SI)
   Tot        0.853660D-01      0.216979D+00      0.723763D+00
   x          0.000000D+00      0.000000D+00      0.000000D+00
   y          0.000000D+00      0.000000D+00      0.000000D+00
   z          0.853660D-01      0.216979D+00      0.723763D+00

 Dipole polarizability, Alpha (dipole orientation).
 (esu units = cm**3 , SI units = C**2 m**2 J**-1)
 Alpha(0;0):
               (au)            (10**-24 esu)      (10**-40 SI)
   iso        0.155439D+02      0.230337D+01      0.256285D+01
   aniso      0.406454D+02      0.602303D+01      0.670153D+01
   xx         0.199544D+01      0.295694D+00      0.329004D+00
   yx         0.000000D+00      0.000000D+00      0.000000D+00
   yy         0.199544D+01      0.295694D+00      0.329004D+00
   zx         0.000000D+00      0.000000D+00      0.000000D+00
   zy         0.000000D+00      0.000000D+00      0.000000D+00
   zz         0.426409D+02      0.631873D+01      0.703053D+01

 ----------------------------------------------------------------------
 Unable to Open any file for archive entry.
 1\1\GINC-DESKTOP-B3RIHJD\Freq\UB3LYP\6-311G(d,p)\F1H2(2)\GARYX\22-Aug-
 2025\0\\# sp b3lyp/6-311g** Force nosymm scf=(qc)\\Title Card Required
 \\0,2\H,0.,0.,0.\H,-2.05,0.,0.\F,3.5,0.,0.\\Version=ES64L-G16RevC.01\H
 F=-100.7725753\S2=1.483787\S2-1=0.\S2A=0.751979\RMSD=7.849e-09\RMSF=9.
 223e-03\ZeroPoint=0.0023132\Thermal=0.0051106\ETot=-100.7674647\HTot=-
 100.7665205\GTot=-100.7912269\Dipole=-0.085366,0.,0.\DipoleDeriv=-0.12
 42402,0.,0.,0.0000001,0.0049659,0.,0.,0.,0.0049659,0.0096833,0.,0.,0.,
 0.005429,0.,0.,0.,0.005429,0.1145569,0.,0.,-0.0000002,-0.010395,0.,0.0
 000001,0.,-0.010395\Polar=42.6408742,-0.0000036,1.9954401,0.0000021,0.
 ,1.9954401\Quadrupole=0.519415,-0.2597075,-0.2597075,0.0000008,-0.0000
 006,0.\PG=C*V [C*(H1H1F1)]\NImag=2\\-0.03174974,0.,0.00526173,0.,0.,0.
 00526173,0.03026181,0.,0.,-0.03004908,0.,-0.00514851,0.,0.,0.00515703,
 0.,0.,-0.00514851,0.,0.,0.00515703,0.00148794,0.,0.,-0.00021272,0.,0.,
 -0.00127521,0.,-0.00011322,0.,0.,-0.00000852,0.,0.,0.00012174,0.,0.,-0
 .00011322,0.,0.,-0.00000852,0.,0.,0.00012174\\0.01912689,0.,0.,-0.0199
 7668,0.,0.,0.00084979,0.,0.\\\@
 The archive entry for this job was punched.


 SUCCESS IS COUNTED SWEETEST
 BY THOSE WHO NE'ER SUCCEED.
 TO COMPREHEND NECTAR
 REQUIRES SOREST NEED.
           EMILY DICKINSON
 Job cpu time:       0 days  0 hours  0 minutes 34.5 seconds.
 Elapsed time:       0 days  0 hours  0 minutes  4.7 seconds.
 File lengths (MBytes):  RWF=      6 Int=      0 D2E=      0 Chk=      1 Scr=      1
 Normal termination of Gaussian 16 at Fri Aug 22 22:09:05 2025.
