 Entering Gaussian System, Link 0=g16
 Initial command:
 /home/garyx/gaussian/g16/l1.exe "/tmp/gaussian_scratch/Gau-1048138.inp" -scrdir="/tmp/gaussian_scratch/"
 Entering Link 1 = /home/garyx/gaussian/g16/l1.exe PID=   1048140.
  
 Copyright (c) 1988-2019, Gaussian, Inc.  All Rights Reserved.
  
 This is part of the Gaussian(R) 16 program.  It is based on
 the Gaussian(R) 09 system (copyright 2009, Gaussian, Inc.),
 the Gaussian(R) 03 system (copyright 2003, Gaussian, Inc.),
 the Gaussian(R) 98 system (copyright 1998, Gaussian, Inc.),
 the Gaussian(R) 94 system (copyright 1995, Gaussian, Inc.),
 the Gaussian 92(TM) system (copyright 1992, Gaussian, Inc.),
 the Gaussian 90(TM) system (copyright 1990, Gaussian, Inc.),
 the Gaussian 88(TM) system (copyright 1988, Gaussian, Inc.),
 the Gaussian 86(TM) system (copyright 1986, Carnegie Mellon
 University), and the Gaussian 82(TM) system (copyright 1983,
 Carnegie Mellon University). Gaussian is a federally registered
 trademark of Gaussian, Inc.
  
 This software contains proprietary and confidential information,
 including trade secrets, belonging to Gaussian, Inc.
  
 This software is provided under written license and may be
 used, copied, transmitted, or stored only in accord with that
 written license.
  
 The following legend is applicable only to US Government
 contracts under FAR:
  
                    RESTRICTED RIGHTS LEGEND
  
 Use, reproduction and disclosure by the US Government is
 subject to restrictions as set forth in subparagraphs (a)
 and (c) of the Commercial Computer Software - Restricted
 Rights clause in FAR 52.227-19.
  
 Gaussian, Inc.
 340 Quinnipiac St., Bldg. 40, Wallingford CT 06492
  
  
 ---------------------------------------------------------------
 Warning -- This program may not be used in any manner that
 competes with the business of Gaussian, Inc. or will provide
 assistance to any competitor of Gaussian, Inc.  The licensee
 of this program is prohibited from giving any competitor of
 Gaussian, Inc. access to this program.  By using this program,
 the user acknowledges that Gaussian, Inc. is engaged in the
 business of creating and licensing software in the field of
 computational chemistry and represents and warrants to the
 licensee that it is not a competitor of Gaussian, Inc. and that
 it will not use this program in any manner prohibited above.
 ---------------------------------------------------------------
  

 Cite this work as:
 Gaussian 16, Revision C.01,
 M. J. Frisch, G. W. Trucks, H. B. Schlegel, G. E. Scuseria, 
 M. A. Robb, J. R. Cheeseman, G. Scalmani, V. Barone, 
 G. A. Petersson, H. Nakatsuji, X. Li, M. Caricato, A. V. Marenich, 
 J. Bloino, B. G. Janesko, R. Gomperts, B. Mennucci, H. P. Hratchian, 
 J. V. Ortiz, A. F. Izmaylov, J. L. Sonnenberg, D. Williams-Young, 
 F. Ding, F. Lipparini, F. Egidi, J. Goings, B. Peng, A. Petrone, 
 T. Henderson, D. Ranasinghe, V. G. Zakrzewski, J. Gao, N. Rega, 
 G. Zheng, W. Liang, M. Hada, M. Ehara, K. Toyota, R. Fukuda, 
 J. Hasegawa, M. Ishida, T. Nakajima, Y. Honda, O. Kitao, H. Nakai, 
 T. Vreven, K. Throssell, J. A. Montgomery, Jr., J. E. Peralta, 
 F. Ogliaro, M. J. Bearpark, J. J. Heyd, E. N. Brothers, K. N. Kudin, 
 V. N. Staroverov, T. A. Keith, R. Kobayashi, J. Normand, 
 K. Raghavachari, A. P. Rendell, J. C. Burant, S. S. Iyengar, 
 J. Tomasi, M. Cossi, J. M. Millam, M. Klene, C. Adamo, R. Cammi, 
 J. W. Ochterski, R. L. Martin, K. Morokuma, O. Farkas, 
 J. B. Foresman, and D. J. Fox, Gaussian, Inc., Wallingford CT, 2019.
 
 ******************************************
 Gaussian 16:  ES64L-G16RevC.01  3-Jul-2019
                22-Aug-2025 
 ******************************************
 %mem=10GB
 %nprocs=8
 Will use up to    8 processors via shared memory.
 -----------------------------------------
 # sp b3lyp/6-311g** Force nosymm scf=(qc)
 -----------------------------------------
 1/10=4,30=1,38=1/1,3;
 2/12=2,15=1,17=6,18=5,40=1/2;
 3/5=4,6=6,7=101,11=2,25=1,30=1,71=2,74=-5,140=1/1,2,3;
 4//1;
 5/5=2,8=3,38=5,98=1/8;
 8/6=4,10=90,11=11/1;
 11/6=1,8=1,9=11,15=111,16=1,31=1/1,2,10;
 10/6=1,31=1/2;
 6/7=2,8=2,9=2,10=2,28=1/1;
 7/8=1,10=1,25=1,30=1/1,2,3,16;
 1/10=4,30=1/3;
 99//99;
 -------------------
 Title Card Required
 -------------------
 Symbolic Z-matrix:
 Charge =  0 Multiplicity = 2
 H                     0.        0.        0. 
 H                    -2.65      0.        0. 
 F                     3.65      0.        0. 
 

 GradGradGradGradGradGradGradGradGradGradGradGradGradGradGradGradGradGrad
 Berny optimization.
 Initialization pass.
 Trust Radius=3.00D-01 FncErr=1.00D-07 GrdErr=1.00D-07 EigMax=2.50D+02 EigMin=1.00D-04
 Number of steps in this run=      2 maximum allowed number of steps=      2.
 GradGradGradGradGradGradGradGradGradGradGradGradGradGradGradGradGradGrad

                          Input orientation:                          
 ---------------------------------------------------------------------
 Center     Atomic      Atomic             Coordinates (Angstroms)
 Number     Number       Type             X           Y           Z
 ---------------------------------------------------------------------
      1          1           0        0.000000    0.000000    0.000000
      2          1           0       -2.650000    0.000000    0.000000
      3          9           0        3.650000    0.000000    0.000000
 ---------------------------------------------------------------------
                    Distance matrix (angstroms):
                    1          2          3
     1  H    0.000000
     2  H    2.650000   0.000000
     3  F    3.650000   6.300000   0.000000
 Symmetry turned off by external request.
 Stoichiometry    FH2(2)
 Framework group  C*V[C*(HHF)]
 Deg. of freedom     2
 Full point group                 C*V     NOp   4
 Rotational constants (GHZ):           0.0000000          10.3897549          10.3897549
 Standard basis: 6-311G(d,p) (5D, 7F)
    30 basis functions,    48 primitive gaussians,    31 cartesian basis functions
     6 alpha electrons        5 beta electrons
       nuclear repulsion energy         2.2604774778 Hartrees.
 NAtoms=    3 NActive=    3 NUniq=    3 SFac= 1.00D+00 NAtFMM=   60 NAOKFM=F Big=F
 Integral buffers will be    131072 words long.
 Raffenetti 2 integral format.
 Two-electron integral symmetry is turned off.
 One-electron integrals computed using PRISM.
 NBasis=    30 RedAO= T EigKep=  8.91D-02  NBF=    30
 NBsUse=    30 1.00D-06 EigRej= -1.00D+00 NBFU=    30
 ExpMin= 1.03D-01 ExpMax= 1.14D+04 ExpMxC= 1.72D+03 IAcc=3 IRadAn=         5 AccDes= 0.00D+00
 Harris functional with IExCor=  402 and IRadAn=       5 diagonalized for initial guess.
 HarFok:  IExCor=  402 AccDes= 0.00D+00 IRadAn=         5 IDoV= 1 UseB2=F ITyADJ=14
 ICtDFT=  3500011 ScaDFX=  1.000000  1.000000  1.000000  1.000000
 FoFCou: FMM=F IPFlag=           0 FMFlag=      100000 FMFlg1=           0
         NFxFlg=           0 DoJE=T BraDBF=F KetDBF=T FulRan=T
         wScrn=  0.000000 ICntrl=       500 IOpCl=  0 I1Cent=   200000004 NGrid=           0
         NMat0=    1 NMatS0=      1 NMatT0=    0 NMatD0=    1 NMtDS0=    0 NMtDT0=    0
 Symmetry not used in FoFCou.
 Initial guess <Sx>= 0.0000 <Sy>= 0.0000 <Sz>= 0.5000 <S**2>= 0.7500 S= 0.5000
 Keep R1 and R2 ints in memory in canonical form, NReq=7127049.
 Gradient too large for Newton-Raphson -- use scaled steepest descent instead.
  Beta Gap=    -0.567 HL deriv= 8.54D-15 Rot set to   3.57D-01
     Minimum is close to point  3 DX=  4.12D-02 DF= -1.21D-03 DXR=  9.34D-02 DFR=  9.34D-03 which will be used.
 Gradient too large for Newton-Raphson -- use scaled steepest descent instead.
     Accept linear search using points  4 and  5.
 Gradient too large for Newton-Raphson -- use scaled steepest descent instead.
 Gradient too large for Newton-Raphson -- use scaled steepest descent instead.
 Gradient too large for Newton-Raphson -- use scaled steepest descent instead.
 Gradient too large for Newton-Raphson -- use scaled steepest descent instead.
     Accept linear search using points  1 and  2.
 Gradient too large for Newton-Raphson -- use scaled steepest descent instead.
     Accept linear search using points  2 and  3.
 Gradient too large for Newton-Raphson -- use scaled steepest descent instead.
 Gradient too large for Newton-Raphson -- use scaled steepest descent instead.
     Accept linear search using points  1 and  2.
 Gradient too large for Newton-Raphson -- use scaled steepest descent instead.
     Minimum is close to point  5 DX=  1.20D-01 DF= -1.89D-04 DXR=  9.81D-02 DFR=  7.35D-03 which will be used.
 Gradient too large for Newton-Raphson -- use scaled steepest descent instead.
     Accept linear search using points  1 and  2.
 Gradient too large for Newton-Raphson -- use scaled steepest descent instead.
     Accept linear search using points  2 and  3.
 Gradient too large for Newton-Raphson -- use scaled steepest descent instead.
     Accept linear search using points  1 and  2.
 LinEq1:  Iter=  0 NonCon=     1 RMS=3.00D-03 Max=4.51D-02 NDo=     1
 AX will form     1 AO Fock derivatives at one time.
 LinEq1:  Iter=  1 NonCon=     1 RMS=4.84D-04 Max=3.53D-03 NDo=     1
 LinEq1:  Iter=  2 NonCon=     1 RMS=1.73D-04 Max=1.43D-03 NDo=     1
 LinEq1:  Iter=  3 NonCon=     1 RMS=4.93D-05 Max=7.38D-04 NDo=     1
 LinEq1:  Iter=  4 NonCon=     1 RMS=1.41D-05 Max=1.36D-04 NDo=     1
 LinEq1:  Iter=  5 NonCon=     1 RMS=1.75D-06 Max=1.90D-05 NDo=     1
 LinEq1:  Iter=  6 NonCon=     1 RMS=1.98D-07 Max=1.94D-06 NDo=     1
 LinEq1:  Iter=  7 NonCon=     1 RMS=5.24D-08 Max=4.36D-07 NDo=     1
 LinEq1:  Iter=  8 NonCon=     1 RMS=9.35D-09 Max=1.06D-07 NDo=     1
 LinEq1:  Iter=  9 NonCon=     0 RMS=9.27D-10 Max=4.72D-09 NDo=     1
 Linear equations converged to 1.640D-09 1.640D-08 after     9 iterations.
     Accept linear search using points  1 and  2.
     Minimum is close to point  2 DX= -5.97D-02 DF= -1.28D-06 DXR=  6.35D-02 DFR=  4.56D-03 which will be used.
 Gradient too large for Newton-Raphson -- use scaled steepest descent instead.
 LinEq1:  Iter=  0 NonCon=     1 RMS=4.40D-04 Max=6.98D-03 NDo=     1
 LinEq1:  Iter=  1 NonCon=     1 RMS=1.48D-04 Max=1.01D-03 NDo=     1
 LinEq1:  Iter=  2 NonCon=     1 RMS=9.42D-06 Max=9.52D-05 NDo=     1
 LinEq1:  Iter=  3 NonCon=     1 RMS=3.41D-06 Max=4.28D-05 NDo=     1
 LinEq1:  Iter=  4 NonCon=     1 RMS=6.33D-07 Max=7.53D-06 NDo=     1
 LinEq1:  Iter=  5 NonCon=     1 RMS=6.57D-08 Max=4.75D-07 NDo=     1
 LinEq1:  Iter=  6 NonCon=     1 RMS=1.09D-08 Max=5.76D-08 NDo=     1
 LinEq1:  Iter=  7 NonCon=     1 RMS=1.90D-09 Max=1.41D-08 NDo=     1
 LinEq1:  Iter=  8 NonCon=     0 RMS=3.75D-10 Max=3.03D-09 NDo=     1
 Linear equations converged to 1.640D-09 1.640D-08 after     8 iterations.
     Minimum is close to point  2 DX= -5.53D-04 DF= -2.37D-12 DXR=  5.53D-04 DFR=  3.06D-07 which will be used.
 LinEq1:  Iter=  0 NonCon=     1 RMS=1.17D-05 Max=1.05D-04 NDo=     1
 LinEq1:  Iter=  1 NonCon=     1 RMS=2.25D-06 Max=2.58D-05 NDo=     1
 LinEq1:  Iter=  2 NonCon=     1 RMS=9.45D-07 Max=8.89D-06 NDo=     1
 LinEq1:  Iter=  3 NonCon=     1 RMS=7.53D-07 Max=8.50D-06 NDo=     1
 LinEq1:  Iter=  4 NonCon=     1 RMS=2.01D-07 Max=1.32D-06 NDo=     1
 LinEq1:  Iter=  5 NonCon=     1 RMS=3.75D-08 Max=4.33D-07 NDo=     1
 LinEq1:  Iter=  6 NonCon=     1 RMS=5.95D-09 Max=4.49D-08 NDo=     1
 LinEq1:  Iter=  7 NonCon=     0 RMS=6.74D-10 Max=4.36D-09 NDo=     1
 Linear equations converged to 1.640D-09 1.640D-08 after     7 iterations.
 LinEq1:  Iter=  0 NonCon=     1 RMS=1.44D-04 Max=1.65D-03 NDo=     1
 LinEq1:  Iter=  1 NonCon=     1 RMS=3.48D-05 Max=3.18D-04 NDo=     1
 LinEq1:  Iter=  2 NonCon=     1 RMS=1.53D-05 Max=1.85D-04 NDo=     1
 LinEq1:  Iter=  3 NonCon=     1 RMS=1.10D-05 Max=8.79D-05 NDo=     1
 LinEq1:  Iter=  4 NonCon=     1 RMS=2.97D-06 Max=2.93D-05 NDo=     1
 LinEq1:  Iter=  5 NonCon=     1 RMS=7.04D-07 Max=5.71D-06 NDo=     1
 LinEq1:  Iter=  6 NonCon=     1 RMS=5.14D-08 Max=3.44D-07 NDo=     1
 LinEq1:  Iter=  7 NonCon=     1 RMS=8.78D-09 Max=4.17D-08 NDo=     1
 LinEq1:  Iter=  8 NonCon=     1 RMS=2.31D-09 Max=3.10D-08 NDo=     1
 LinEq1:  Iter=  9 NonCon=     0 RMS=9.16D-10 Max=7.84D-09 NDo=     1
 Linear equations converged to 1.640D-09 1.640D-08 after     9 iterations.
 LinEq1:  Iter=  0 NonCon=     1 RMS=1.27D-04 Max=9.88D-04 NDo=     1
 LinEq1:  Iter=  1 NonCon=     1 RMS=3.85D-05 Max=3.92D-04 NDo=     1
 LinEq1:  Iter=  2 NonCon=     1 RMS=1.75D-05 Max=1.93D-04 NDo=     1
 LinEq1:  Iter=  3 NonCon=     1 RMS=1.02D-05 Max=7.24D-05 NDo=     1
 LinEq1:  Iter=  4 NonCon=     1 RMS=2.66D-06 Max=2.29D-05 NDo=     1
 LinEq1:  Iter=  5 NonCon=     1 RMS=6.41D-07 Max=6.29D-06 NDo=     1
 LinEq1:  Iter=  6 NonCon=     1 RMS=5.46D-08 Max=4.25D-07 NDo=     1
 LinEq1:  Iter=  7 NonCon=     1 RMS=5.99D-09 Max=3.78D-08 NDo=     1
 LinEq1:  Iter=  8 NonCon=     0 RMS=1.31D-09 Max=1.11D-08 NDo=     1
 Linear equations converged to 1.640D-09 1.640D-08 after     8 iterations.
     Accept linear search using points  1 and  2.
 LinEq1:  Iter=  0 NonCon=     1 RMS=1.49D-04 Max=1.23D-03 NDo=     1
 LinEq1:  Iter=  1 NonCon=     1 RMS=3.48D-05 Max=5.08D-04 NDo=     1
 LinEq1:  Iter=  2 NonCon=     1 RMS=1.07D-05 Max=9.63D-05 NDo=     1
 LinEq1:  Iter=  3 NonCon=     1 RMS=3.75D-06 Max=3.87D-05 NDo=     1
 LinEq1:  Iter=  4 NonCon=     1 RMS=1.61D-06 Max=1.73D-05 NDo=     1
 LinEq1:  Iter=  5 NonCon=     1 RMS=2.73D-07 Max=2.94D-06 NDo=     1
 LinEq1:  Iter=  6 NonCon=     1 RMS=5.98D-08 Max=3.96D-07 NDo=     1
 LinEq1:  Iter=  7 NonCon=     1 RMS=6.80D-09 Max=5.01D-08 NDo=     1
 LinEq1:  Iter=  8 NonCon=     1 RMS=1.42D-09 Max=1.86D-08 NDo=     1
 LinEq1:  Iter=  9 NonCon=     0 RMS=6.74D-10 Max=6.10D-09 NDo=     1
 Linear equations converged to 1.640D-09 1.640D-08 after     9 iterations.
     Minimum is close to point  3 DX=  1.03D-01 DF= -4.07D-07 DXR=  6.84D-02 DFR=  7.15D-03 which will be used.
 LinEq1:  Iter=  0 NonCon=     1 RMS=1.12D-04 Max=9.41D-04 NDo=     1
 LinEq1:  Iter=  1 NonCon=     1 RMS=2.78D-05 Max=4.00D-04 NDo=     1
 LinEq1:  Iter=  2 NonCon=     1 RMS=2.08D-05 Max=1.81D-04 NDo=     1
 LinEq1:  Iter=  3 NonCon=     1 RMS=8.27D-06 Max=7.58D-05 NDo=     1
 LinEq1:  Iter=  4 NonCon=     1 RMS=8.83D-07 Max=7.15D-06 NDo=     1
 LinEq1:  Iter=  5 NonCon=     1 RMS=1.46D-07 Max=1.53D-06 NDo=     1
 LinEq1:  Iter=  6 NonCon=     1 RMS=3.56D-08 Max=2.69D-07 NDo=     1
 LinEq1:  Iter=  7 NonCon=     1 RMS=4.47D-09 Max=3.39D-08 NDo=     1
 LinEq1:  Iter=  8 NonCon=     0 RMS=7.08D-10 Max=6.17D-09 NDo=     1
 Linear equations converged to 1.640D-09 1.640D-08 after     8 iterations.
     Minimum is close to point  3 DX=  7.78D-02 DF= -1.36D-07 DXR=  4.93D-02 DFR=  3.57D-03 which will be used.
 LinEq1:  Iter=  0 NonCon=     1 RMS=9.01D-05 Max=7.75D-04 NDo=     1
 LinEq1:  Iter=  1 NonCon=     1 RMS=1.99D-05 Max=2.77D-04 NDo=     1
 LinEq1:  Iter=  2 NonCon=     1 RMS=1.28D-05 Max=1.04D-04 NDo=     1
 LinEq1:  Iter=  3 NonCon=     1 RMS=9.65D-06 Max=1.21D-04 NDo=     1
 LinEq1:  Iter=  4 NonCon=     1 RMS=1.00D-06 Max=7.01D-06 NDo=     1
 LinEq1:  Iter=  5 NonCon=     1 RMS=9.17D-08 Max=6.68D-07 NDo=     1
 LinEq1:  Iter=  6 NonCon=     1 RMS=2.14D-08 Max=2.22D-07 NDo=     1
 LinEq1:  Iter=  7 NonCon=     1 RMS=3.55D-09 Max=2.45D-08 NDo=     1
 LinEq1:  Iter=  8 NonCon=     0 RMS=3.43D-10 Max=2.73D-09 NDo=     1
 Linear equations converged to 1.640D-09 1.640D-08 after     8 iterations.
     Accept linear search using points  3 and  4.
 LinEq1:  Iter=  0 NonCon=     1 RMS=5.60D-05 Max=4.32D-04 NDo=     1
 LinEq1:  Iter=  1 NonCon=     1 RMS=1.02D-05 Max=9.52D-05 NDo=     1
 LinEq1:  Iter=  2 NonCon=     1 RMS=1.21D-05 Max=1.33D-04 NDo=     1
 LinEq1:  Iter=  3 NonCon=     1 RMS=5.13D-06 Max=5.00D-05 NDo=     1
 LinEq1:  Iter=  4 NonCon=     1 RMS=5.80D-07 Max=3.59D-06 NDo=     1
 LinEq1:  Iter=  5 NonCon=     1 RMS=8.24D-08 Max=9.35D-07 NDo=     1
 LinEq1:  Iter=  6 NonCon=     1 RMS=1.79D-08 Max=1.19D-07 NDo=     1
 LinEq1:  Iter=  7 NonCon=     1 RMS=2.01D-09 Max=1.58D-08 NDo=     1
 LinEq1:  Iter=  8 NonCon=     0 RMS=1.90D-10 Max=1.34D-09 NDo=     1
 Linear equations converged to 1.640D-09 1.640D-08 after     8 iterations.
     Minimum is close to point  3 DX=  1.28D-01 DF= -1.54D-08 DXR=  7.00D-02 DFR=  2.92D-03 which will be used.
 LinEq1:  Iter=  0 NonCon=     1 RMS=1.33D-05 Max=1.01D-04 NDo=     1
 LinEq1:  Iter=  1 NonCon=     1 RMS=3.09D-06 Max=2.64D-05 NDo=     1
 LinEq1:  Iter=  2 NonCon=     1 RMS=2.98D-06 Max=3.65D-05 NDo=     1
 LinEq1:  Iter=  3 NonCon=     1 RMS=6.84D-07 Max=6.16D-06 NDo=     1
 LinEq1:  Iter=  4 NonCon=     1 RMS=8.71D-08 Max=8.15D-07 NDo=     1
 LinEq1:  Iter=  5 NonCon=     1 RMS=2.65D-08 Max=2.39D-07 NDo=     1
 LinEq1:  Iter=  6 NonCon=     1 RMS=3.56D-09 Max=3.25D-08 NDo=     1
 LinEq1:  Iter=  7 NonCon=     0 RMS=2.93D-10 Max=3.00D-09 NDo=     1
 Linear equations converged to 1.640D-09 1.640D-08 after     7 iterations.
     Accept linear search using points  1 and  2.
 LinEq1:  Iter=  0 NonCon=     1 RMS=2.93D-06 Max=2.02D-05 NDo=     1
 LinEq1:  Iter=  1 NonCon=     1 RMS=4.21D-07 Max=6.11D-06 NDo=     1
 LinEq1:  Iter=  2 NonCon=     1 RMS=5.23D-08 Max=4.59D-07 NDo=     1
 LinEq1:  Iter=  3 NonCon=     1 RMS=4.02D-08 Max=3.26D-07 NDo=     1
 LinEq1:  Iter=  4 NonCon=     1 RMS=3.28D-08 Max=2.55D-07 NDo=     1
 LinEq1:  Iter=  5 NonCon=     1 RMS=6.95D-09 Max=7.66D-08 NDo=     1
 LinEq1:  Iter=  6 NonCon=     0 RMS=9.85D-10 Max=7.47D-09 NDo=     1
 Linear equations converged to 1.485D-09 1.485D-08 after     6 iterations.
     Accept linear search using points  1 and  2.
     Minimum is close to point  2 DX= -2.06D-02 DF= -2.64D-12 DXR=  2.11D-02 DFR=  4.44D-04 which will be used.
 LinEq1:  Iter=  0 NonCon=     1 RMS=3.75D-07 Max=2.84D-06 NDo=     1
 LinEq1:  Iter=  1 NonCon=     1 RMS=8.10D-08 Max=6.43D-07 NDo=     1
 LinEq1:  Iter=  2 NonCon=     1 RMS=3.35D-08 Max=4.20D-07 NDo=     1
 LinEq1:  Iter=  3 NonCon=     1 RMS=1.92D-08 Max=1.40D-07 NDo=     1
 LinEq1:  Iter=  4 NonCon=     1 RMS=1.49D-08 Max=1.54D-07 NDo=     1
 LinEq1:  Iter=  5 NonCon=     1 RMS=2.81D-09 Max=2.20D-08 NDo=     1
 LinEq1:  Iter=  6 NonCon=     1 RMS=4.50D-10 Max=1.95D-09 NDo=     1
 LinEq1:  Iter=  7 NonCon=     0 RMS=7.37D-11 Max=5.36D-10 NDo=     1
 Linear equations converged to 2.197D-10 2.197D-09 after     7 iterations.
 LinEq1:  Iter=  0 NonCon=     1 RMS=3.99D-08 Max=2.90D-07 NDo=     1
 LinEq1:  Iter=  1 NonCon=     1 RMS=1.74D-08 Max=2.06D-07 NDo=     1
 LinEq1:  Iter=  2 NonCon=     1 RMS=1.06D-08 Max=1.39D-07 NDo=     1
 LinEq1:  Iter=  3 NonCon=     1 RMS=5.60D-09 Max=4.76D-08 NDo=     1
 LinEq1:  Iter=  4 NonCon=     1 RMS=1.40D-09 Max=9.90D-09 NDo=     1
 LinEq1:  Iter=  5 NonCon=     1 RMS=1.65D-10 Max=1.28D-09 NDo=     1
 LinEq1:  Iter=  6 NonCon=     1 RMS=3.93D-11 Max=3.67D-10 NDo=     1
 LinEq1:  Iter=  7 NonCon=     0 RMS=7.85D-12 Max=5.07D-11 NDo=     1
 Linear equations converged to 2.346D-11 2.346D-10 after     7 iterations.
 LinEq1:  Iter=  0 NonCon=     1 RMS=5.19D-09 Max=3.38D-08 NDo=     1
 LinEq1:  Iter=  1 NonCon=     1 RMS=2.35D-09 Max=2.89D-08 NDo=     1
 LinEq1:  Iter=  2 NonCon=     1 RMS=7.55D-10 Max=5.28D-09 NDo=     1
 LinEq1:  Iter=  3 NonCon=     1 RMS=3.75D-10 Max=3.72D-09 NDo=     1
 LinEq1:  Iter=  4 NonCon=     1 RMS=1.96D-10 Max=2.29D-09 NDo=     1
 LinEq1:  Iter=  5 NonCon=     1 RMS=4.89D-11 Max=3.58D-10 NDo=     1
 LinEq1:  Iter=  6 NonCon=     1 RMS=7.26D-12 Max=4.70D-11 NDo=     1
 LinEq1:  Iter=  7 NonCon=     0 RMS=1.15D-12 Max=5.50D-12 NDo=     1
 Linear equations converged to 2.540D-12 2.540D-11 after     7 iterations.
 QCLLim is confused:  Bigger=T Turned=T
 NLin=  7 IMin12=  1  2 I12=  0  2 IX=  1 XLMin= 0.000D+00 XLMax= 0.000D+00
 X = 0.000D+00 1.000D+00 2.000D+00 4.000D+00 8.000D+00 1.600D+01 3.200D+01
 DE= 0.000D+00 2.842D-14 2.842D-14 1.990D-13 9.948D-13 4.491D-12 1.910D-11
 QCLLim is confused:  Bigger=T Turned=T
 NLin=  9 IMin12=  1  2 I12=  0  2 IX=  1 XLMin= 0.000D+00 XLMax= 0.000D+00
 X = 0.000D+00 1.000D+00 2.000D+00 4.000D+00 8.000D+00 1.600D+01 3.200D+01 6.400D+01 1.280D+02
 DE= 0.000D+00 2.842D-14 2.842D-14 1.990D-13 9.948D-13 4.491D-12 1.910D-11 7.921D-11 3.224D-10
 QCLLim is confused:  Bigger=T Turned=T
 NLin= 10 IMin12=  1  2 I12=  0  2 IX=  1 XLMin= 0.000D+00 XLMax= 0.000D+00
 X = 0.000D+00 1.000D+00 2.000D+00 4.000D+00 8.000D+00 1.600D+01 3.200D+01 6.400D+01 1.280D+02 2.560D+02
 DE= 0.000D+00 2.842D-14 2.842D-14 1.990D-13 9.948D-13 4.491D-12 1.910D-11 7.921D-11 3.224D-10 1.302D-09
 QCLLim is confused:  Bigger=T Turned=T
 NLin= 12 IMin12=  1  2 I12=  0  2 IX=  1 XLMin= 0.000D+00 XLMax= 0.000D+00
 X = 0.000D+00 1.000D+00 2.000D+00 4.000D+00 8.000D+00 1.600D+01 3.200D+01 6.400D+01 1.280D+02 2.560D+02 5.120D+02 1.024D+03
 DE= 0.000D+00 2.842D-14 2.842D-14 1.990D-13 9.948D-13 4.491D-12 1.910D-11 7.921D-11 3.224D-10 1.302D-09 5.234D-09 2.102D-08
 Search did not lower the energy significantly.
 No lower point found -- using Newton-Raphson step.
 SCF Done:  E(UB3LYP) =  -100.761423558     a.u. after   29 cycles
            Convg  =    0.6179D-07                   202 Fock formations.
              S**2 =  1.6987                  -V/T =  2.0016
 <Sx>= 0.0000 <Sy>= 0.0000 <Sz>= 0.5000 <S**2>= 1.6987 S= 0.8960
 <L.S>=  0.00000000000    
 Annihilation of the first spin contaminant:
 S**2 before annihilation     1.6987,   after     0.7528
 DoSCS=F DFT=T ScalE2(SS,OS)=  1.000000  1.000000
 Range of M.O.s used for correlation:     1    30
 NBasis=    30 NAE=     6 NBE=     5 NFC=     0 NFV=     0
 NROrb=     30 NOA=     6 NOB=     5 NVA=    24 NVB=    25

 **** Warning!!: The smallest beta delta epsilon is  0.71715531D-01

 Symmetrizing basis deriv contribution to polar:
 IMax=3 JMax=2 DiffMx= 0.00D+00
 G2DrvN: will do     4 centers at a time, making    1 passes.
 Calling FoFCou, ICntrl=  3107 FMM=F I1Cent=   0 AccDes= 0.00D+00.
 End of G2Drv F.D. properties file   721 does not exist.
 End of G2Drv F.D. properties file   722 does not exist.
 End of G2Drv F.D. properties file   788 does not exist.
          IDoAtm=111
          Differentiating once with respect to electric field.
                with respect to dipole field.
          Differentiating once with respect to nuclear coordinates.
 Keep R1 and R2 ints in memory in canonical form, NReq=7101526.
          There are    12 degrees of freedom in the 1st order CPHF.  IDoFFX=6 NUNeed=     3.
      9 vectors produced by pass  0 Test12= 2.24D-15 8.33D-09 XBig12= 8.72D+01 8.60D+00.
 AX will form     9 AO Fock derivatives at one time.
      9 vectors produced by pass  1 Test12= 2.24D-15 8.33D-09 XBig12= 3.89D-01 2.24D-01.
      9 vectors produced by pass  2 Test12= 2.24D-15 8.33D-09 XBig12= 6.47D-02 1.12D-01.
      7 vectors produced by pass  3 Test12= 2.24D-15 8.33D-09 XBig12= 1.67D-04 5.70D-03.
      7 vectors produced by pass  4 Test12= 2.24D-15 8.33D-09 XBig12= 1.48D-06 4.03D-04.
      4 vectors produced by pass  5 Test12= 2.24D-15 8.33D-09 XBig12= 5.46D-09 2.65D-05.
      1 vectors produced by pass  6 Test12= 2.24D-15 8.33D-09 XBig12= 2.21D-11 2.62D-06.
      1 vectors produced by pass  7 Test12= 2.24D-15 8.33D-09 XBig12= 1.45D-14 4.70D-08.
 InvSVY:  IOpt=1 It=  1 EMax= 1.56D-14
 Solved reduced A of dimension    47 with     9 vectors.
 Isotropic polarizability for W=    0.000000        9.97 Bohr**3.
 End of Minotr F.D. properties file   721 does not exist.
 End of Minotr F.D. properties file   722 does not exist.
 End of Minotr F.D. properties file   788 does not exist.

 **********************************************************************

            Population analysis using the SCF Density.

 **********************************************************************

 Alpha  occ. eigenvalues --  -24.75640  -1.21584  -0.54763  -0.45981  -0.45981
 Alpha  occ. eigenvalues --   -0.32529
 Alpha virt. eigenvalues --   -0.08892   0.25550   0.35006   0.87177   0.91320
 Alpha virt. eigenvalues --    0.91320   1.01464   1.25070   1.25070   1.26520
 Alpha virt. eigenvalues --    1.42442   1.42442   1.43252   2.16017   2.37829
 Alpha virt. eigenvalues --    3.65480   3.67680   3.67680   3.74671   3.74672
 Alpha virt. eigenvalues --    5.86614   5.94078   5.94078  66.47303
  Beta  occ. eigenvalues --  -24.72511  -1.12589  -0.42844  -0.42844  -0.32793
  Beta virt. eigenvalues --   -0.25621  -0.08509   0.25348   0.35570   0.92814
  Beta virt. eigenvalues --    0.92814   0.96429   1.05540   1.24766   1.24766
  Beta virt. eigenvalues --    1.26169   1.43028   1.43028   1.43837   2.16305
  Beta virt. eigenvalues --    2.37939   3.76289   3.76289   3.77418   3.77418
  Beta virt. eigenvalues --    3.79431   5.96729   5.96729   6.00658  66.50418
          Condensed to atoms (all electrons):
               1          2          3
     1  H    0.979427   0.013676   0.001070
     2  H    0.013676   0.985140  -0.000000
     3  F    0.001070  -0.000000   9.005942
          Atomic-Atomic Spin Densities.
               1          2          3
     1  H   -0.972737   0.000681  -0.000444
     2  H    0.000681   0.979680  -0.000000
     3  F   -0.000444  -0.000000   0.992583
 Mulliken charges and spin densities:
               1          2
     1  H    0.005827  -0.972500
     2  H    0.001184   0.980360
     3  F   -0.007011   0.992140
 Sum of Mulliken charges =   0.00000   1.00000
 Mulliken charges and spin densities with hydrogens summed into heavy atoms:
               1          2
     3  F    0.000000   1.000000
 APT charges:
               1
     1  H   -0.022187
     2  H    0.000184
     3  F    0.022003
 Sum of APT charges =   0.00000
 APT charges with hydrogens summed into heavy atoms:
               1
     3  F    0.000000
 Electronic spatial extent (au):  <R**2>=            469.8484
 Charge=              0.0000 electrons
 Dipole moment (field-independent basis, Debye):
    X=             -0.1465    Y=              0.0000    Z=              0.0000  Tot=              0.1465
 Quadrupole moment (field-independent basis, Debye-Ang):
   XX=             -7.0068   YY=             -7.6543   ZZ=             -7.6543
   XY=             -0.0000   XZ=             -0.0000   YZ=              0.0000
 Traceless Quadrupole moment (field-independent basis, Debye-Ang):
   XX=              0.4317   YY=             -0.2159   ZZ=             -0.2159
   XY=             -0.0000   XZ=             -0.0000   YZ=              0.0000
 Octapole moment (field-independent basis, Debye-Ang**2):
  XXX=            -34.9619  YYY=              0.0000  ZZZ=             -0.0000  XYY=            -13.9518
  XXY=             -0.0000  XXZ=             -0.0000  XZZ=            -13.9518  YZZ=              0.0000
  YYZ=             -0.0000  XYZ=              0.0000
 Hexadecapole moment (field-independent basis, Debye-Ang**3):
 XXXX=           -385.6244 YYYY=             -6.4232 ZZZZ=             -6.4232 XXXY=             -0.0000
 XXXZ=             -0.0000 YYYX=             -0.0000 YYYZ=              0.0000 ZZZX=             -0.0000
 ZZZY=              0.0000 XXYY=            -76.3125 XXZZ=            -76.3125 YYZZ=             -2.1411
 XXYZ=              0.0000 YYXZ=             -0.0000 ZZXY=             -0.0000
 N-N= 2.260477477803D+00 E-N=-2.454598579468D+02  KE= 1.006020000166D+02
  Exact polarizability:      25.871      -0.000       2.016       0.000       0.000       2.016
 Approx polarizability:      19.135      -0.000       1.931      -0.000      -0.000       1.931
                          Isotropic Fermi Contact Couplings
        Atom                 a.u.       MegaHertz       Gauss      10(-4) cm-1
     1  H(1)              -0.28968   -1294.82688    -462.02643    -431.90776
     2  H(1)               0.29150    1302.98759     464.93837     434.62988
     3  F(19)              0.03032     127.55895      45.51620      42.54908
 --------------------------------------------------------
       Center         ----  Spin Dipole Couplings  ----
                      3XX-RR        3YY-RR        3ZZ-RR
 --------------------------------------------------------
     1   Atom        0.021950     -0.010975     -0.010975
     2   Atom       -0.014016      0.007008      0.007008
     3   Atom        6.243006     -3.121503     -3.121503
 --------------------------------------------------------
                        XY            XZ            YZ
 --------------------------------------------------------
     1   Atom        0.000000      0.000000      0.000000
     2   Atom       -0.000000      0.000000      0.000000
     3   Atom       -0.000000     -0.000006     -0.000000
 --------------------------------------------------------


 ---------------------------------------------------------------------------------
              Anisotropic Spin Dipole Couplings in Principal Axis System
 ---------------------------------------------------------------------------------

       Atom             a.u.   MegaHertz   Gauss  10(-4) cm-1        Axes

              Baa    -0.0110    -5.856    -2.089    -1.953 -0.0000 -0.0710  0.9975
     1 H(1)   Bbb    -0.0110    -5.856    -2.089    -1.953 -0.0000  0.9975  0.0710
              Bcc     0.0220    11.712     4.179     3.907  1.0000  0.0000  0.0000
 
              Baa    -0.0140    -7.478    -2.668    -2.495  1.0000  0.0000 -0.0000
     2 H(1)   Bbb     0.0070     3.739     1.334     1.247  0.0000 -0.0731  0.9973
              Bcc     0.0070     3.739     1.334     1.247  0.0000  0.9973  0.0731
 
              Baa    -3.1215 -1567.699  -559.394  -522.928  0.0000  0.9978  0.0656
     3 F(19)  Bbb    -3.1215 -1567.699  -559.394  -522.928  0.0000 -0.0656  0.9978
              Bcc     6.2430  3135.397  1118.788  1045.856  1.0000 -0.0000 -0.0000
 

 ---------------------------------------------------------------------------------

 Calling FoFJK, ICntrl=    100127 FMM=F ISym2X=0 I1Cent= 0 IOpClX= 1 NMat=1 NMatS=1 NMatT=0.
 Full mass-weighted force constant matrix:
 Low frequencies --- -541.1250 -115.7650   -0.0023   -0.0021   -0.0019   37.1141
 Low frequencies ---   37.1142  202.7041  202.7041
 ******    2 imaginary frequencies (negative Signs) ****** 
 Diagonal vibrational polarizability:
        6.8569445       0.0203214       0.0203214
 Harmonic frequencies (cm**-1), IR intensities (KM/Mole), Raman scattering
 activities (A**4/AMU), depolarization ratios for plane and unpolarized
 incident light, reduced masses (AMU), force constants (mDyne/A),
 and normal coordinates:
                      1                      2                      3
                      A                      A                      A
 Frequencies --   -541.1250              -115.7650               197.0968
 Red. masses --      1.0081                 1.1082                 1.0145
 Frc consts  --      0.1739                 0.0088                 0.0232
 IR Inten    --      3.3229                 3.2626                 0.0293
  Atom  AN      X      Y      Z        X      Y      Z        X      Y      Z
     1   1     0.74   0.00   0.00     0.67   0.00   0.00    -0.00   0.86   0.07
     2   1    -0.67  -0.00  -0.00     0.74  -0.00  -0.00    -0.00  -0.50  -0.04
     3   9    -0.00  -0.00  -0.00    -0.07  -0.00  -0.00     0.00  -0.02  -0.00
                      4
                      A
 Frequencies --    197.0968
 Red. masses --      1.0145
 Frc consts  --      0.0232
 IR Inten    --      0.0293
  Atom  AN      X      Y      Z
     1   1    -0.00  -0.07   0.86
     2   1    -0.00   0.04  -0.50
     3   9     0.00   0.00  -0.02

 -------------------
 - Thermochemistry -
 -------------------
 Temperature   298.150 Kelvin.  Pressure   1.00000 Atm.
 Atom     1 has atomic number  1 and mass   1.00783
 Atom     2 has atomic number  1 and mass   1.00783
 Atom     3 has atomic number  9 and mass  18.99840
 Molecular mass:    21.01405 amu.
 Principal axes and moments of inertia in atomic units:
                           1         2         3
     Eigenvalues --     0.00000 173.70392 173.70392
           X            1.00000  -0.00000   0.00000
           Y            0.00000   1.00000   0.00000
           Z            0.00000   0.00000   1.00000
 This molecule is a prolate symmetric top.
 Rotational symmetry number  1.
 Rotational temperature (Kelvin)      0.49863
 Rotational constant (GHZ):          10.389755
    2 imaginary frequencies ignored.
 Zero-point vibrational energy       2357.8 (Joules/Mol)
                                    0.56353 (Kcal/Mol)
 Warning -- explicit consideration of   2 degrees of freedom as
           vibrations may cause significant error
 Vibrational temperatures:    283.58   283.58
          (Kelvin)
 
 Zero-point correction=                           0.000898 (Hartree/Particle)
 Thermal correction to Energy=                    0.004389
 Thermal correction to Enthalpy=                  0.005333
 Thermal correction to Gibbs Free Energy=        -0.021017
 Sum of electronic and zero-point Energies=           -100.760526
 Sum of electronic and thermal Energies=              -100.757034
 Sum of electronic and thermal Enthalpies=            -100.756090
 Sum of electronic and thermal Free Energies=         -100.782440
 
                     E (Thermal)             CV                S
                      KCal/Mol        Cal/Mol-Kelvin    Cal/Mol-Kelvin
 Total                    2.754              8.656             55.458
 Electronic               0.000              0.000              1.377
 Translational            0.889              2.981             35.068
 Rotational               0.592              1.987             14.692
 Vibrational              1.273              3.688              4.320
 Vibration     1          0.636              1.844              2.160
 Vibration     2          0.636              1.844              2.160
                       Q            Log10(Q)             Ln(Q)
 Total Bot       0.464443D+10          9.666932         22.258934
 Total V=0       0.120227D+11         10.080001         23.210060
 Vib (Bot)       0.102572D+01          0.011027          0.025390
 Vib (Bot)    1  0.101278D+01          0.005513          0.012695
 Vib (Bot)    2  0.101278D+01          0.005513          0.012695
 Vib (V=0)       0.265519D+01          0.424096          0.976517
 Vib (V=0)    1  0.162948D+01          0.212048          0.488258
 Vib (V=0)    2  0.162948D+01          0.212048          0.488258
 Electronic      0.200000D+01          0.301030          0.693147
 Translational   0.378633D+07          6.578219         15.146908
 Rotational      0.597939D+03          2.776657          6.393488
 -------------------------------------------------------------------
 Center     Atomic                   Forces (Hartrees/Bohr)
 Number     Number              X              Y              Z
 -------------------------------------------------------------------
      1        1          -0.003173648    0.000000000    0.000000000
      2        1           0.003801017    0.000000000    0.000000000
      3        9          -0.000627369   -0.000000000   -0.000000000
 -------------------------------------------------------------------
 Cartesian Forces:  Max     0.003801017 RMS     0.001663776

 GradGradGradGradGradGradGradGradGradGradGradGradGradGradGradGradGradGrad
 Berny optimization.
 Search for a local minimum.
 Step number   1 out of a maximum of    2
 All quantities printed in internal units (Hartrees-Bohrs-Radians)
 Second derivative matrix not updated -- analytic derivatives used.
 The second derivative matrix:
                          X1        Y1        Z1        X2        Y2
           X1          -0.00633
           Y1          -0.00000   0.00086
           Z1          -0.00000  -0.00000   0.00086
           X2           0.00533   0.00000  -0.00000  -0.00530
           Y2          -0.00000  -0.00076  -0.00000   0.00000   0.00076
           Z2          -0.00000  -0.00000  -0.00076  -0.00000  -0.00000
           X3           0.00101   0.00000   0.00000  -0.00003   0.00000
           Y3           0.00000  -0.00010   0.00000  -0.00000  -0.00000
           Z3           0.00000   0.00000  -0.00010   0.00000   0.00000
                          Z2        X3        Y3        Z3
           Z2           0.00076
           X3           0.00000  -0.00097
           Y3           0.00000  -0.00000   0.00010
           Z3          -0.00000  -0.00000  -0.00000   0.00010
 ITU=  0
     Eigenvalues ---   -0.01120  -0.00105   0.00149   0.00149
 Eigenvalue     1 is  -1.12D-02 should be greater than     0.000000 Eigenvector:
                          X1        X2        X3        Z1        Z2
   1                    0.75438  -0.65561  -0.03293   0.00000  -0.00000
                          Z3        Y1        Y2        Y3
   1                   -0.00000   0.00000  -0.00000  -0.00000
 Eigenvalue     2 is  -1.05D-03 should be greater than     0.000000 Eigenvector:
                          X2        X1        X3        Z1        Z2
   1                    0.69229   0.58309  -0.42513   0.00000  -0.00000
                          Z3        Y1        Y2        Y3
   1                   -0.00000   0.00000  -0.00000  -0.00000
 Quadratic step=1.091D+00 exceeds max=3.000D-01 adjusted using Lamda=-6.868D-03.
 Angle between NR and scaled steps=  40.35 degrees.
 Angle between quadratic step and forces=  14.67 degrees.
 Linear search not attempted -- first point.
 B after Tr=    -0.031600    0.000000   -0.000000
         Rot=    0.995206   -0.097801   -0.000000    0.000000 Ang= -11.23 deg.
 Variable       Old X    -DE/DX   Delta X   Delta X   Delta X     New X
                                 (Linear)    (Quad)   (Total)
    X1        0.00000  -0.00317   0.00000  -0.12597  -0.15757  -0.15757
    Y1        0.00000   0.00000   0.00000   0.00000  -0.00000  -0.00000
    Z1        0.00000   0.00000   0.00000   0.00000   0.00000   0.00000
    X2       -5.00777   0.00380   0.00000   0.26817   0.23657  -4.77121
    Y2        0.00000   0.00000   0.00000  -0.00000   0.00000   0.00000
    Z2        0.00000   0.00000   0.00000  -0.00000  -0.00000  -0.00000
    X3        6.89750  -0.00063   0.00000  -0.04740  -0.07900   6.81850
    Y3        0.00000  -0.00000   0.00000  -0.00000   0.00000   0.00000
    Z3        0.00000  -0.00000   0.00000  -0.00000  -0.00000  -0.00000
         Item               Value     Threshold  Converged?
 Maximum Force            0.003801     0.000450     NO 
 RMS     Force            0.001664     0.000300     NO 
 Maximum Displacement     0.236567     0.001800     NO 
 RMS     Displacement     0.098337     0.001200     NO 
 Predicted change in Energy=-1.864065D-03
 GradGradGradGradGradGradGradGradGradGradGradGradGradGradGradGradGradGrad


 ----------------------------------------------------------------------

 Electric dipole moment (input orientation):
 (Debye = 10**-18 statcoulomb cm , SI units = C m)
                  (au)            (Debye)         (10**-30 SI)
   Tot        0.576564D-01      0.146548D+00      0.488831D+00
   x         -0.576564D-01     -0.146548D+00     -0.488831D+00
   y          0.000000D+00      0.000000D+00      0.000000D+00
   z          0.000000D+00      0.000000D+00      0.000000D+00

 Dipole polarizability, Alpha (input orientation).
 (esu units = cm**3 , SI units = C**2 m**2 J**-1)
 Alpha(0;0):
               (au)            (10**-24 esu)      (10**-40 SI)
   iso        0.996764D+01      0.147705D+01      0.164344D+01
   aniso      0.238546D+02      0.353489D+01      0.393310D+01
   xx         0.258707D+02      0.383365D+01      0.426551D+01
   yx         0.000000D+00      0.000000D+00      0.000000D+00
   yy         0.201610D+01      0.298756D+00      0.332410D+00
   zx         0.000000D+00      0.000000D+00      0.000000D+00
   zy         0.000000D+00      0.000000D+00      0.000000D+00
   zz         0.201610D+01      0.298756D+00      0.332410D+00

 ----------------------------------------------------------------------

 Dipole orientation:
     1          0.00000000          0.00000000          0.00000000
     1         -0.00000069         -0.00000012          5.00777423
     9          0.00000095          0.00000017         -6.89750035

 Electric dipole moment (dipole orientation):
 (Debye = 10**-18 statcoulomb cm , SI units = C m)
                  (au)            (Debye)         (10**-30 SI)
   Tot        0.576564D-01      0.146548D+00      0.488831D+00
   x          0.000000D+00      0.000000D+00      0.000000D+00
   y          0.000000D+00      0.000000D+00      0.000000D+00
   z          0.576564D-01      0.146548D+00      0.488831D+00

 Dipole polarizability, Alpha (dipole orientation).
 (esu units = cm**3 , SI units = C**2 m**2 J**-1)
 Alpha(0;0):
               (au)            (10**-24 esu)      (10**-40 SI)
   iso        0.996764D+01      0.147705D+01      0.164344D+01
   aniso      0.238546D+02      0.353489D+01      0.393310D+01
   xx         0.201610D+01      0.298756D+00      0.332410D+00
   yx         0.000000D+00      0.000000D+00      0.000000D+00
   yy         0.201610D+01      0.298756D+00      0.332410D+00
   zx         0.000000D+00      0.000000D+00      0.000000D+00
   zy         0.000000D+00      0.000000D+00      0.000000D+00
   zz         0.258707D+02      0.383365D+01      0.426551D+01

 ----------------------------------------------------------------------
 Unable to Open any file for archive entry.
 1\1\GINC-DESKTOP-B3RIHJD\Freq\UB3LYP\6-311G(d,p)\F1H2(2)\GARYX\22-Aug-
 2025\0\\# sp b3lyp/6-311g** Force nosymm scf=(qc)\\Title Card Required
 \\0,2\H,0.,0.,0.\H,-2.65,0.,0.\F,3.65,0.,0.\\Version=ES64L-G16RevC.01\
 HF=-100.7614236\S2=1.698732\S2-1=0.\S2A=0.752842\RMSD=3.768e-09\RMSF=1
 .664e-03\Thermal=0.0043891\ETot=-100.7570345\HTot=-100.7560903\GTot=-1
 00.7824401\Dipole=-0.0576564,0.,0.\DipoleDeriv=-0.0803002,0.,0.,0.,0.0
 068691,0.,0.,0.,0.0068691,-0.0017296,0.,0.,0.,0.0011412,0.,0.,0.,0.001
 1412,0.0820298,0.,0.,0.,-0.0080103,0.,0.,0.,-0.0080103\Polar=25.870723
 9,0.,2.016103,0.0000008,0.,2.0161029\Quadrupole=0.320969,-0.1604845,-0
 .1604845,0.,-0.0000004,0.\PG=C*V [C*(H1H1F1)]\NImag=2\\-0.00633217,0.,
 0.00085502,0.,0.,0.00085502,0.00532627,0.,0.,-0.00529515,0.,-0.0007582
 2,0.,0.,0.00075943,0.,0.,-0.00075822,0.,0.,0.00075943,0.00100591,0.,0.
 ,-0.00003111,0.,0.,-0.00097479,0.,-0.00009680,0.,0.,-0.00000121,0.,0.,
 0.00009801,0.,0.,-0.00009680,0.,0.,-0.00000121,0.,0.,0.00009801\\0.003
 17365,0.,0.,-0.00380102,0.,0.,0.00062737,0.,0.\\\@
 The archive entry for this job was punched.


 WE ARE PERHAPS NOT FAR REMOVED FROM THE TIME WHEN WE SHALL BE ABLE TO SUBMIT
 THE BULK OF CHEMICAL PHENOMENA TO CALCULATION.

            -- JOSEPH LOUIS GAY-LUSSAC
               MEMOIRES DE LA SOCIETE D'ARCUEIL, 2, 207 (1808)
 Job cpu time:       0 days  0 hours  0 minutes 34.4 seconds.
 Elapsed time:       0 days  0 hours  0 minutes  4.7 seconds.
 File lengths (MBytes):  RWF=      6 Int=      0 D2E=      0 Chk=      1 Scr=      1
 Normal termination of Gaussian 16 at Fri Aug 22 23:36:46 2025.
