 Entering Gaussian System, Link 0=g16
 Initial command:
 /home/garyx/gaussian/g16/l1.exe "/tmp/gaussian_scratch/Gau-498972.inp" -scrdir="/tmp/gaussian_scratch/"
 Entering Link 1 = /home/garyx/gaussian/g16/l1.exe PID=    498974.
  
 Copyright (c) 1988-2019, Gaussian, Inc.  All Rights Reserved.
  
 This is part of the Gaussian(R) 16 program.  It is based on
 the Gaussian(R) 09 system (copyright 2009, Gaussian, Inc.),
 the Gaussian(R) 03 system (copyright 2003, Gaussian, Inc.),
 the Gaussian(R) 98 system (copyright 1998, Gaussian, Inc.),
 the Gaussian(R) 94 system (copyright 1995, Gaussian, Inc.),
 the Gaussian 92(TM) system (copyright 1992, Gaussian, Inc.),
 the Gaussian 90(TM) system (copyright 1990, Gaussian, Inc.),
 the Gaussian 88(TM) system (copyright 1988, Gaussian, Inc.),
 the Gaussian 86(TM) system (copyright 1986, Carnegie Mellon
 University), and the Gaussian 82(TM) system (copyright 1983,
 Carnegie Mellon University). Gaussian is a federally registered
 trademark of Gaussian, Inc.
  
 This software contains proprietary and confidential information,
 including trade secrets, belonging to Gaussian, Inc.
  
 This software is provided under written license and may be
 used, copied, transmitted, or stored only in accord with that
 written license.
  
 The following legend is applicable only to US Government
 contracts under FAR:
  
                    RESTRICTED RIGHTS LEGEND
  
 Use, reproduction and disclosure by the US Government is
 subject to restrictions as set forth in subparagraphs (a)
 and (c) of the Commercial Computer Software - Restricted
 Rights clause in FAR 52.227-19.
  
 Gaussian, Inc.
 340 Quinnipiac St., Bldg. 40, Wallingford CT 06492
  
  
 ---------------------------------------------------------------
 Warning -- This program may not be used in any manner that
 competes with the business of Gaussian, Inc. or will provide
 assistance to any competitor of Gaussian, Inc.  The licensee
 of this program is prohibited from giving any competitor of
 Gaussian, Inc. access to this program.  By using this program,
 the user acknowledges that Gaussian, Inc. is engaged in the
 business of creating and licensing software in the field of
 computational chemistry and represents and warrants to the
 licensee that it is not a competitor of Gaussian, Inc. and that
 it will not use this program in any manner prohibited above.
 ---------------------------------------------------------------
  

 Cite this work as:
 Gaussian 16, Revision C.01,
 M. J. Frisch, G. W. Trucks, H. B. Schlegel, G. E. Scuseria, 
 M. A. Robb, J. R. Cheeseman, G. Scalmani, V. Barone, 
 G. A. Petersson, H. Nakatsuji, X. Li, M. Caricato, A. V. Marenich, 
 J. Bloino, B. G. Janesko, R. Gomperts, B. Mennucci, H. P. Hratchian, 
 J. V. Ortiz, A. F. Izmaylov, J. L. Sonnenberg, D. Williams-Young, 
 F. Ding, F. Lipparini, F. Egidi, J. Goings, B. Peng, A. Petrone, 
 T. Henderson, D. Ranasinghe, V. G. Zakrzewski, J. Gao, N. Rega, 
 G. Zheng, W. Liang, M. Hada, M. Ehara, K. Toyota, R. Fukuda, 
 J. Hasegawa, M. Ishida, T. Nakajima, Y. Honda, O. Kitao, H. Nakai, 
 T. Vreven, K. Throssell, J. A. Montgomery, Jr., J. E. Peralta, 
 F. Ogliaro, M. J. Bearpark, J. J. Heyd, E. N. Brothers, K. N. Kudin, 
 V. N. Staroverov, T. A. Keith, R. Kobayashi, J. Normand, 
 K. Raghavachari, A. P. Rendell, J. C. Burant, S. S. Iyengar, 
 J. Tomasi, M. Cossi, J. M. Millam, M. Klene, C. Adamo, R. Cammi, 
 J. W. Ochterski, R. L. Martin, K. Morokuma, O. Farkas, 
 J. B. Foresman, and D. J. Fox, Gaussian, Inc., Wallingford CT, 2019.
 
 ******************************************
 Gaussian 16:  ES64L-G16RevC.01  3-Jul-2019
                22-Aug-2025 
 ******************************************
 %mem=10GB
 %nprocs=8
 Will use up to    8 processors via shared memory.
 -----------------------------------------
 # sp b3lyp/6-311g** Force nosymm scf=(qc)
 -----------------------------------------
 1/10=4,30=1,38=1/1,3;
 2/12=2,15=1,17=6,18=5,40=1/2;
 3/5=4,6=6,7=101,11=2,25=1,30=1,71=2,74=-5,140=1/1,2,3;
 4//1;
 5/5=2,8=3,38=5,98=1/8;
 8/6=4,10=90,11=11/1;
 11/6=1,8=1,9=11,15=111,16=1,31=1/1,2,10;
 10/6=1,31=1/2;
 6/7=2,8=2,9=2,10=2,28=1/1;
 7/8=1,10=1,25=1,30=1/1,2,3,16;
 1/10=4,30=1/3;
 99//99;
 -------------------
 Title Card Required
 -------------------
 Symbolic Z-matrix:
 Charge =  0 Multiplicity = 2
 H                     0.        0.        0. 
 H                    -1.55      0.        0. 
 F                     2.15      0.        0. 
 

 GradGradGradGradGradGradGradGradGradGradGradGradGradGradGradGradGradGrad
 Berny optimization.
 Initialization pass.
 Trust Radius=3.00D-01 FncErr=1.00D-07 GrdErr=1.00D-07 EigMax=2.50D+02 EigMin=1.00D-04
 Number of steps in this run=      2 maximum allowed number of steps=      2.
 GradGradGradGradGradGradGradGradGradGradGradGradGradGradGradGradGradGrad

                          Input orientation:                          
 ---------------------------------------------------------------------
 Center     Atomic      Atomic             Coordinates (Angstroms)
 Number     Number       Type             X           Y           Z
 ---------------------------------------------------------------------
      1          1           0        0.000000    0.000000    0.000000
      2          1           0       -1.550000    0.000000    0.000000
      3          9           0        2.150000    0.000000    0.000000
 ---------------------------------------------------------------------
                    Distance matrix (angstroms):
                    1          2          3
     1  H    0.000000
     2  H    1.550000   0.000000
     3  F    2.150000   3.700000   0.000000
 Symmetry turned off by external request.
 Stoichiometry    FH2(2)
 Framework group  C*V[C*(HHF)]
 Deg. of freedom     2
 Full point group                 C*V     NOp   4
 Rotational constants (GHZ):           0.0000000          30.0791184          30.0791184
 Standard basis: 6-311G(d,p) (5D, 7F)
    30 basis functions,    48 primitive gaussians,    31 cartesian basis functions
     6 alpha electrons        5 beta electrons
       nuclear repulsion energy         3.8437528804 Hartrees.
 NAtoms=    3 NActive=    3 NUniq=    3 SFac= 1.00D+00 NAtFMM=   60 NAOKFM=F Big=F
 Integral buffers will be    131072 words long.
 Raffenetti 2 integral format.
 Two-electron integral symmetry is turned off.
 One-electron integrals computed using PRISM.
 NBasis=    30 RedAO= T EigKep=  6.28D-02  NBF=    30
 NBsUse=    30 1.00D-06 EigRej= -1.00D+00 NBFU=    30
 ExpMin= 1.03D-01 ExpMax= 1.14D+04 ExpMxC= 1.72D+03 IAcc=3 IRadAn=         5 AccDes= 0.00D+00
 Harris functional with IExCor=  402 and IRadAn=       5 diagonalized for initial guess.
 HarFok:  IExCor=  402 AccDes= 0.00D+00 IRadAn=         5 IDoV= 1 UseB2=F ITyADJ=14
 ICtDFT=  3500011 ScaDFX=  1.000000  1.000000  1.000000  1.000000
 FoFCou: FMM=F IPFlag=           0 FMFlag=      100000 FMFlg1=           0
         NFxFlg=           0 DoJE=T BraDBF=F KetDBF=T FulRan=T
         wScrn=  0.000000 ICntrl=       500 IOpCl=  0 I1Cent=   200000004 NGrid=           0
         NMat0=    1 NMatS0=      1 NMatT0=    0 NMatD0=    1 NMtDS0=    0 NMtDT0=    0
 Symmetry not used in FoFCou.
 Initial guess <Sx>= 0.0000 <Sy>= 0.0000 <Sz>= 0.5000 <S**2>= 0.7500 S= 0.5000
 Keep R1 and R2 ints in memory in canonical form, NReq=7127049.
 Gradient too large for Newton-Raphson -- use scaled steepest descent instead.
  Beta Gap=    -0.477 HL deriv= 3.94D-16 Rot set to   3.05D-01
     Minimum is close to point  3 DX=  2.46D-02 DF= -4.48D-04 DXR=  5.80D-02 DFR=  3.57D-03 which will be used.
 Gradient too large for Newton-Raphson -- use scaled steepest descent instead.
     Accept linear search using points  4 and  5.
 Gradient too large for Newton-Raphson -- use scaled steepest descent instead.
 Gradient too large for Newton-Raphson -- use scaled steepest descent instead.
     Minimum is close to point  3 DX= -1.25D-03 DF= -3.84D-07 DXR=  4.19D-03 DFR=  1.75D-05 which will be used.
 Gradient too large for Newton-Raphson -- use scaled steepest descent instead.
     Accept linear search using points  1 and  2.
 Gradient too large for Newton-Raphson -- use scaled steepest descent instead.
     Accept linear search using points  1 and  2.
 Gradient too large for Newton-Raphson -- use scaled steepest descent instead.
 Gradient too large for Newton-Raphson -- use scaled steepest descent instead.
     Accept linear search using points  1 and  2.
 Gradient too large for Newton-Raphson -- use scaled steepest descent instead.
 LinEq1:  Iter=  0 NonCon=     1 RMS=7.47D-04 Max=6.52D-03 NDo=     1
 AX will form     1 AO Fock derivatives at one time.
 LinEq1:  Iter=  1 NonCon=     1 RMS=6.27D-04 Max=7.50D-03 NDo=     1
 LinEq1:  Iter=  2 NonCon=     1 RMS=3.99D-04 Max=3.62D-03 NDo=     1
 LinEq1:  Iter=  3 NonCon=     1 RMS=3.68D-04 Max=3.60D-03 NDo=     1
 LinEq1:  Iter=  4 NonCon=     1 RMS=3.00D-05 Max=2.56D-04 NDo=     1
 LinEq1:  Iter=  5 NonCon=     1 RMS=8.80D-06 Max=7.53D-05 NDo=     1
 LinEq1:  Iter=  6 NonCon=     1 RMS=2.40D-06 Max=1.29D-05 NDo=     1
 LinEq1:  Iter=  7 NonCon=     1 RMS=2.68D-07 Max=1.83D-06 NDo=     1
 LinEq1:  Iter=  8 NonCon=     1 RMS=4.72D-08 Max=4.01D-07 NDo=     1
 LinEq1:  Iter=  9 NonCon=     1 RMS=6.59D-09 Max=3.46D-08 NDo=     1
 LinEq1:  Iter= 10 NonCon=     0 RMS=4.92D-10 Max=2.57D-09 NDo=     1
 Linear equations converged to 1.640D-09 1.640D-08 after    10 iterations.
     Accept linear search using points  1 and  2.
 LinEq1:  Iter=  0 NonCon=     1 RMS=2.22D-04 Max=3.31D-03 NDo=     1
 LinEq1:  Iter=  1 NonCon=     1 RMS=1.08D-04 Max=8.00D-04 NDo=     1
 LinEq1:  Iter=  2 NonCon=     1 RMS=5.50D-05 Max=5.40D-04 NDo=     1
 LinEq1:  Iter=  3 NonCon=     1 RMS=3.98D-05 Max=3.98D-04 NDo=     1
 LinEq1:  Iter=  4 NonCon=     1 RMS=1.58D-05 Max=1.39D-04 NDo=     1
 LinEq1:  Iter=  5 NonCon=     1 RMS=6.47D-06 Max=4.72D-05 NDo=     1
 LinEq1:  Iter=  6 NonCon=     1 RMS=1.90D-06 Max=1.41D-05 NDo=     1
 LinEq1:  Iter=  7 NonCon=     1 RMS=2.07D-07 Max=1.65D-06 NDo=     1
 LinEq1:  Iter=  8 NonCon=     1 RMS=4.80D-08 Max=4.50D-07 NDo=     1
 LinEq1:  Iter=  9 NonCon=     1 RMS=5.61D-09 Max=4.61D-08 NDo=     1
 LinEq1:  Iter= 10 NonCon=     0 RMS=5.49D-10 Max=3.89D-09 NDo=     1
 Linear equations converged to 1.640D-09 1.640D-08 after    10 iterations.
     Minimum is close to point  2 DX=  9.61D-03 DF= -2.85D-10 DXR=  9.52D-03 DFR=  9.07D-05 which will be used.
 LinEq1:  Iter=  0 NonCon=     1 RMS=1.11D-06 Max=1.67D-05 NDo=     1
 LinEq1:  Iter=  1 NonCon=     1 RMS=4.33D-07 Max=4.43D-06 NDo=     1
 LinEq1:  Iter=  2 NonCon=     1 RMS=5.35D-07 Max=6.67D-06 NDo=     1
 LinEq1:  Iter=  3 NonCon=     1 RMS=1.62D-07 Max=2.06D-06 NDo=     1
 LinEq1:  Iter=  4 NonCon=     1 RMS=7.67D-08 Max=1.08D-06 NDo=     1
 LinEq1:  Iter=  5 NonCon=     1 RMS=2.91D-08 Max=2.18D-07 NDo=     1
 LinEq1:  Iter=  6 NonCon=     1 RMS=5.71D-09 Max=5.33D-08 NDo=     1
 LinEq1:  Iter=  7 NonCon=     1 RMS=7.70D-10 Max=8.15D-09 NDo=     1
 LinEq1:  Iter=  8 NonCon=     1 RMS=1.35D-10 Max=1.48D-09 NDo=     1
 LinEq1:  Iter=  9 NonCon=     0 RMS=2.40D-11 Max=1.93D-10 NDo=     1
 Linear equations converged to 8.202D-11 8.202D-10 after     9 iterations.
 SCF Done:  E(UB3LYP) =  -100.824284251     a.u. after   13 cycles
            Convg  =    0.1751D-07                    62 Fock formations.
              S**2 =  0.9177                  -V/T =  2.0039
 <Sx>= 0.0000 <Sy>= 0.0000 <Sz>= 0.5000 <S**2>= 0.9177 S= 0.5806
 <L.S>=  0.00000000000    
 Annihilation of the first spin contaminant:
 S**2 before annihilation     0.9177,   after     0.7503
 DoSCS=F DFT=T ScalE2(SS,OS)=  1.000000  1.000000
 Range of M.O.s used for correlation:     1    30
 NBasis=    30 NAE=     6 NBE=     5 NFC=     0 NFV=     0
 NROrb=     30 NOA=     6 NOB=     5 NVA=    24 NVB=    25
 Symmetrizing basis deriv contribution to polar:
 IMax=3 JMax=2 DiffMx= 0.00D+00
 G2DrvN: will do     4 centers at a time, making    1 passes.
 Calling FoFCou, ICntrl=  3107 FMM=F I1Cent=   0 AccDes= 0.00D+00.
 End of G2Drv F.D. properties file   721 does not exist.
 End of G2Drv F.D. properties file   722 does not exist.
 End of G2Drv F.D. properties file   788 does not exist.
          IDoAtm=111
          Differentiating once with respect to electric field.
                with respect to dipole field.
          Differentiating once with respect to nuclear coordinates.
 Keep R1 and R2 ints in memory in canonical form, NReq=7101505.
          There are    12 degrees of freedom in the 1st order CPHF.  IDoFFX=6 NUNeed=     3.
      9 vectors produced by pass  0 Test12= 2.24D-15 8.33D-09 XBig12= 2.70D+02 1.51D+01.
 AX will form     9 AO Fock derivatives at one time.
      9 vectors produced by pass  1 Test12= 2.24D-15 8.33D-09 XBig12= 1.81D+01 1.93D+00.
      9 vectors produced by pass  2 Test12= 2.24D-15 8.33D-09 XBig12= 1.24D+00 5.13D-01.
      9 vectors produced by pass  3 Test12= 2.24D-15 8.33D-09 XBig12= 4.36D-03 1.92D-02.
      7 vectors produced by pass  4 Test12= 2.24D-15 8.33D-09 XBig12= 3.88D-05 2.58D-03.
      5 vectors produced by pass  5 Test12= 2.24D-15 8.33D-09 XBig12= 3.51D-07 1.72D-04.
      4 vectors produced by pass  6 Test12= 2.24D-15 8.33D-09 XBig12= 4.26D-10 8.97D-06.
      1 vectors produced by pass  7 Test12= 2.24D-15 8.33D-09 XBig12= 2.42D-12 6.06D-07.
      1 vectors produced by pass  8 Test12= 2.24D-15 8.33D-09 XBig12= 3.87D-15 2.34D-08.
 InvSVY:  IOpt=1 It=  1 EMax= 1.11D-15
 Solved reduced A of dimension    54 with     9 vectors.
 Isotropic polarizability for W=    0.000000       20.05 Bohr**3.
 End of Minotr F.D. properties file   721 does not exist.
 End of Minotr F.D. properties file   722 does not exist.
 End of Minotr F.D. properties file   788 does not exist.

 **********************************************************************

            Population analysis using the SCF Density.

 **********************************************************************

 Alpha  occ. eigenvalues --  -24.70738  -1.17027  -0.50033  -0.41893  -0.41893
 Alpha  occ. eigenvalues --   -0.37155
 Alpha virt. eigenvalues --   -0.11213   0.22995   0.31258   0.85607   0.93770
 Alpha virt. eigenvalues --    0.93770   1.02809   1.17858   1.17858   1.23974
 Alpha virt. eigenvalues --    1.37740   1.37740   1.77240   2.18194   2.43310
 Alpha virt. eigenvalues --    3.71056   3.72601   3.72601   3.78840   3.78840
 Alpha virt. eigenvalues --    5.98242   5.98419   5.98419  66.53686
  Beta  occ. eigenvalues --  -24.68036  -1.09385  -0.39210  -0.39210  -0.36650
  Beta virt. eigenvalues --   -0.23726  -0.09952   0.24947   0.30977   0.90049
  Beta virt. eigenvalues --    0.94951   0.94951   1.06746   1.19290   1.19290
  Beta virt. eigenvalues --    1.28235   1.38492   1.38492   1.78356   2.19197
  Beta virt. eigenvalues --    2.44524   3.80241   3.80241   3.80978   3.80978
  Beta virt. eigenvalues --    3.82750   6.00703   6.00703   6.10139  66.56363
          Condensed to atoms (all electrons):
               1          2          3
     1  H    0.712370   0.194559   0.028839
     2  H    0.194559   0.750001  -0.000379
     3  F    0.028839  -0.000379   9.091593
          Atomic-Atomic Spin Densities.
               1          2          3
     1  H   -0.406744   0.018539  -0.014563
     2  H    0.018539   0.535343  -0.001590
     3  F   -0.014563  -0.001590   0.866630
 Mulliken charges and spin densities:
               1          2
     1  H    0.064232  -0.402769
     2  H    0.055819   0.552292
     3  F   -0.120052   0.850477
 Sum of Mulliken charges =  -0.00000   1.00000
 Mulliken charges and spin densities with hydrogens summed into heavy atoms:
               1          2
     3  F   -0.000000   1.000000
 APT charges:
               1
     1  H   -0.204259
     2  H    0.151228
     3  F    0.053031
 Sum of APT charges =  -0.00000
 APT charges with hydrogens summed into heavy atoms:
               1
     3  F   -0.000000
 Electronic spatial extent (au):  <R**2>=            174.0842
 Charge=             -0.0000 electrons
 Dipole moment (field-independent basis, Debye):
    X=             -1.7057    Y=              0.0000    Z=             -0.0000  Tot=              1.7057
 Quadrupole moment (field-independent basis, Debye-Ang):
   XX=             -7.6071   YY=             -7.5885   ZZ=             -7.5885
   XY=              0.0000   XZ=             -0.0000   YZ=              0.0000
 Traceless Quadrupole moment (field-independent basis, Debye-Ang):
   XX=             -0.0124   YY=              0.0062   ZZ=              0.0062
   XY=              0.0000   XZ=             -0.0000   YZ=              0.0000
 Octapole moment (field-independent basis, Debye-Ang**2):
  XXX=            -29.7614  YYY=              0.0000  ZZZ=             -0.0000  XYY=             -8.6906
  XXY=              0.0000  XXZ=             -0.0000  XZZ=             -8.6906  YZZ=              0.0000
  YYZ=             -0.0000  XYZ=              0.0000
 Hexadecapole moment (field-independent basis, Debye-Ang**3):
 XXXX=           -143.0555 YYYY=             -6.1660 ZZZZ=             -6.1660 XXXY=              0.0000
 XXXZ=             -0.0000 YYYX=              0.0000 YYYZ=              0.0000 ZZZX=             -0.0000
 ZZZY=              0.0000 XXYY=            -27.6404 XXZZ=            -27.6404 YYZZ=             -2.0553
 XXYZ=              0.0000 YYXZ=             -0.0000 ZZXY=              0.0000
 N-N= 3.843752880357D+00 E-N=-2.488956694065D+02  KE= 1.004360495642D+02
  Exact polarizability:      56.001       0.000       2.078      -0.000      -0.000       2.078
 Approx polarizability:      82.060      -0.000       2.033       0.000      -0.000       2.033
                          Isotropic Fermi Contact Couplings
        Atom                 a.u.       MegaHertz       Gauss      10(-4) cm-1
     1  H(1)              -0.11833    -528.90137    -188.72516    -176.42251
     2  H(1)               0.16635     743.55613     265.31932     248.02363
     3  F(19)              0.01186      49.91585      17.81122      16.65014
 --------------------------------------------------------
       Center         ----  Spin Dipole Couplings  ----
                      3XX-RR        3YY-RR        3ZZ-RR
 --------------------------------------------------------
     1   Atom        0.068727     -0.034363     -0.034363
     2   Atom       -0.016663      0.008331      0.008331
     3   Atom        5.428942     -2.714471     -2.714471
 --------------------------------------------------------
                        XY            XZ            YZ
 --------------------------------------------------------
     1   Atom       -0.000000      0.000000      0.000000
     2   Atom       -0.000000      0.000000      0.000000
     3   Atom        0.000000     -0.000000     -0.000000
 --------------------------------------------------------


 ---------------------------------------------------------------------------------
              Anisotropic Spin Dipole Couplings in Principal Axis System
 ---------------------------------------------------------------------------------

       Atom             a.u.   MegaHertz   Gauss  10(-4) cm-1        Axes

              Baa    -0.0344   -18.335    -6.542    -6.116  0.0000  0.8663 -0.4995
     1 H(1)   Bbb    -0.0344   -18.335    -6.542    -6.116 -0.0000  0.4995  0.8663
              Bcc     0.0687    36.669    13.085    12.232  1.0000 -0.0000  0.0000
 
              Baa    -0.0167    -8.890    -3.172    -2.965  1.0000  0.0000 -0.0000
     2 H(1)   Bbb     0.0083     4.445     1.586     1.483 -0.0000  0.8637 -0.5041
              Bcc     0.0083     4.445     1.586     1.483  0.0000  0.5041  0.8637
 
              Baa    -2.7145 -1363.277  -486.451  -454.740 -0.0000  0.5012  0.8653
     3 F(19)  Bbb    -2.7145 -1363.277  -486.451  -454.740 -0.0000  0.8653 -0.5012
              Bcc     5.4289  2726.554   972.902   909.480  1.0000  0.0000 -0.0000
 

 ---------------------------------------------------------------------------------

 Calling FoFJK, ICntrl=    100127 FMM=F ISym2X=0 I1Cent= 0 IOpClX= 1 NMat=1 NMatS=1 NMatT=0.
 Full mass-weighted force constant matrix:
 Low frequencies ----2103.5140 -448.1737    0.0014    0.0019    0.0022  234.0922
 Low frequencies ---  234.0922 1063.9127 1063.9127
 ******    2 imaginary frequencies (negative Signs) ****** 
 Diagonal vibrational polarizability:
        7.8848417       0.0241945       0.0241945
 Harmonic frequencies (cm**-1), IR intensities (KM/Mole), Raman scattering
 activities (A**4/AMU), depolarization ratios for plane and unpolarized
 incident light, reduced masses (AMU), force constants (mDyne/A),
 and normal coordinates:
                      1                      2                      3
                      A                      A                      A
 Frequencies --  -2103.5140              -448.1737              1039.1626
 Red. masses --      1.0101                 1.1057                 1.0145
 Frc consts  --      2.6334                 0.1309                 0.6454
 IR Inten    --    629.6729                30.2672                 0.9708
  Atom  AN      X      Y      Z        X      Y      Z        X      Y      Z
     1   1     0.81  -0.00   0.00     0.58   0.00  -0.00    -0.00   0.45   0.74
     2   1    -0.59   0.00  -0.00     0.81  -0.00   0.00     0.00  -0.26  -0.43
     3   9    -0.01   0.00  -0.00    -0.07  -0.00   0.00     0.00  -0.01  -0.02
                      4
                      A
 Frequencies --   1039.1626
 Red. masses --      1.0145
 Frc consts  --      0.6454
 IR Inten    --      0.9708
  Atom  AN      X      Y      Z
     1   1     0.00   0.74  -0.45
     2   1    -0.00  -0.43   0.26
     3   9     0.00  -0.02   0.01

 -------------------
 - Thermochemistry -
 -------------------
 Temperature   298.150 Kelvin.  Pressure   1.00000 Atm.
 Atom     1 has atomic number  1 and mass   1.00783
 Atom     2 has atomic number  1 and mass   1.00783
 Atom     3 has atomic number  9 and mass  18.99840
 Molecular mass:    21.01405 amu.
 Principal axes and moments of inertia in atomic units:
                           1         2         3
     Eigenvalues --     0.00000  59.99980  59.99980
           X            1.00000  -0.00000   0.00000
           Y            0.00000   1.00000   0.00000
           Z            0.00000   0.00000   1.00000
 This molecule is a prolate symmetric top.
 Rotational symmetry number  1.
 Rotational temperature (Kelvin)      1.44357
 Rotational constant (GHZ):          30.079118
    2 imaginary frequencies ignored.
 Zero-point vibrational energy      12431.1 (Joules/Mol)
                                    2.97112 (Kcal/Mol)
 Vibrational temperatures:   1495.12  1495.12
          (Kelvin)
 
 Zero-point correction=                           0.004735 (Hartree/Particle)
 Thermal correction to Energy=                    0.007159
 Thermal correction to Enthalpy=                  0.008103
 Thermal correction to Gibbs Free Energy=        -0.015267
 Sum of electronic and zero-point Energies=           -100.819549
 Sum of electronic and thermal Energies=              -100.817126
 Sum of electronic and thermal Enthalpies=            -100.816182
 Sum of electronic and thermal Free Energies=         -100.839551
 
                     E (Thermal)             CV                S
                      KCal/Mol        Cal/Mol-Kelvin    Cal/Mol-Kelvin
 Total                    4.492              5.641             49.185
 Electronic               0.000              0.000              1.377
 Translational            0.889              2.981             35.068
 Rotational               0.592              1.987             12.580
 Vibrational              3.011              0.673              0.160
                       Q            Log10(Q)             Ln(Q)
 Total Bot       0.105242D+08          7.022189         16.169189
 Total V=0       0.158501D+10          9.200032         21.183857
 Vib (Bot)       0.672890D-02         -2.172056         -5.001344
 Vib (V=0)       0.101341D+01          0.005787          0.013324
 Electronic      0.200000D+01          0.301030          0.693147
 Translational   0.378633D+07          6.578219         15.146908
 Rotational      0.206537D+03          2.314997          5.330477
 -------------------------------------------------------------------
 Center     Atomic                   Forces (Hartrees/Bohr)
 Number     Number              X              Y              Z
 -------------------------------------------------------------------
      1        1          -0.044167697   -0.000000000    0.000000000
      2        1           0.060371045   -0.000000000    0.000000000
      3        9          -0.016203348    0.000000000   -0.000000000
 -------------------------------------------------------------------
 Cartesian Forces:  Max     0.060371045 RMS     0.025512518

 GradGradGradGradGradGradGradGradGradGradGradGradGradGradGradGradGradGrad
 Berny optimization.
 Search for a local minimum.
 Step number   1 out of a maximum of    2
 All quantities printed in internal units (Hartrees-Bohrs-Radians)
 Second derivative matrix not updated -- analytic derivatives used.
 The second derivative matrix:
                          X1        Y1        Z1        X2        Y2
           X1          -0.11168
           Y1           0.00000   0.02448
           Z1          -0.00000  -0.00000   0.02448
           X2           0.07704  -0.00000   0.00000  -0.06362
           Y2          -0.00000  -0.02054  -0.00000   0.00000   0.02057
           Z2           0.00000  -0.00000  -0.02054  -0.00000  -0.00000
           X3           0.03464   0.00000  -0.00000  -0.01343   0.00000
           Y3           0.00000  -0.00394   0.00000  -0.00000  -0.00003
           Z3           0.00000   0.00000  -0.00394  -0.00000   0.00000
                          Z2        X3        Y3        Z3
           Z2           0.02057
           X3           0.00000  -0.02121
           Y3           0.00000  -0.00000   0.00397
           Z3          -0.00003   0.00000  -0.00000   0.00397
 ITU=  0
     Eigenvalues ---   -0.17348  -0.01531   0.04161   0.04161
 Eigenvalue     1 is  -1.73D-01 should be greater than     0.000000 Eigenvector:
                          X1        X2        X3        Y1        Z1
   1                    0.83794  -0.53643  -0.10050  -0.00000   0.00000
                          Y2        Z2        Y3        Z3
   1                    0.00000  -0.00000   0.00000  -0.00000
 Eigenvalue     2 is  -1.53D-02 should be greater than     0.000000 Eigenvector:
                          X2        X1        X3        Y1        Z1
   1                    0.78825   0.45492  -0.41439   0.00000  -0.00000
                          Y2        Z2        Y3        Z3
   1                   -0.00000   0.00000  -0.00000   0.00000
 Quadratic step=2.268D+00 exceeds max=3.000D-01 adjusted using Lamda=-1.453D-01.
 Angle between NR and scaled steps=  35.03 degrees.
 Angle between quadratic step and forces=  19.64 degrees.
 Linear search not attempted -- first point.
 B after Tr=    -0.044604    0.000000    0.000000
         Rot=    0.843926   -0.536460   -0.000000   -0.000000 Ang= -64.89 deg.
 Variable       Old X    -DE/DX   Delta X   Delta X   Delta X     New X
                                 (Linear)    (Quad)   (Total)
    X1        0.00000  -0.04417   0.00000  -0.08124  -0.12584  -0.12584
    Y1        0.00000  -0.00000   0.00000  -0.00000  -0.00000  -0.00000
    Z1        0.00000   0.00000   0.00000   0.00000  -0.00000  -0.00000
    X2       -2.92908   0.06037   0.00000   0.28195   0.23735  -2.69173
    Y2        0.00000  -0.00000   0.00000   0.00000   0.00000   0.00000
    Z2        0.00000   0.00000   0.00000  -0.00000   0.00000   0.00000
    X3        4.06291  -0.01620   0.00000  -0.06691  -0.11151   3.95140
    Y3        0.00000   0.00000   0.00000   0.00000   0.00000   0.00000
    Z3        0.00000  -0.00000   0.00000  -0.00000   0.00000   0.00000
         Item               Value     Threshold  Converged?
 Maximum Force            0.060371     0.000450     NO 
 RMS     Force            0.025513     0.000300     NO 
 Maximum Displacement     0.237348     0.001800     NO 
 RMS     Displacement     0.096956     0.001200     NO 
 Predicted change in Energy=-2.596148D-02
 GradGradGradGradGradGradGradGradGradGradGradGradGradGradGradGradGradGrad


 ----------------------------------------------------------------------

 Electric dipole moment (input orientation):
 (Debye = 10**-18 statcoulomb cm , SI units = C m)
                  (au)            (Debye)         (10**-30 SI)
   Tot        0.671083D+00      0.170572D+01      0.568968D+01
   x         -0.671083D+00     -0.170572D+01     -0.568968D+01
   y          0.000000D+00      0.000000D+00      0.000000D+00
   z          0.000000D+00      0.000000D+00      0.000000D+00

 Dipole polarizability, Alpha (input orientation).
 (esu units = cm**3 , SI units = C**2 m**2 J**-1)
 Alpha(0;0):
               (au)            (10**-24 esu)      (10**-40 SI)
   iso        0.200524D+02      0.297145D+01      0.330619D+01
   aniso      0.539225D+02      0.799050D+01      0.889063D+01
   xx         0.560007D+02      0.829845D+01      0.923327D+01
   yx         0.000000D+00      0.000000D+00      0.000000D+00
   yy         0.207817D+01      0.307953D+00      0.342644D+00
   zx         0.000000D+00      0.000000D+00      0.000000D+00
   zy         0.000000D+00      0.000000D+00      0.000000D+00
   zz         0.207817D+01      0.307953D+00      0.342644D+00

 ----------------------------------------------------------------------

 Dipole orientation:
     1          0.00000000          0.00000000          0.00000000
     1          0.00000000         -0.00000000          2.92907549
     9         -0.00000000          0.00000000         -4.06291117

 Electric dipole moment (dipole orientation):
 (Debye = 10**-18 statcoulomb cm , SI units = C m)
                  (au)            (Debye)         (10**-30 SI)
   Tot        0.671083D+00      0.170572D+01      0.568968D+01
   x          0.000000D+00      0.000000D+00      0.000000D+00
   y          0.000000D+00      0.000000D+00      0.000000D+00
   z          0.671083D+00      0.170572D+01      0.568968D+01

 Dipole polarizability, Alpha (dipole orientation).
 (esu units = cm**3 , SI units = C**2 m**2 J**-1)
 Alpha(0;0):
               (au)            (10**-24 esu)      (10**-40 SI)
   iso        0.200524D+02      0.297145D+01      0.330619D+01
   aniso      0.539225D+02      0.799050D+01      0.889063D+01
   xx         0.207817D+01      0.307953D+00      0.342644D+00
   yx         0.000000D+00      0.000000D+00      0.000000D+00
   yy         0.207817D+01      0.307953D+00      0.342644D+00
   zx         0.000000D+00      0.000000D+00      0.000000D+00
   zy         0.000000D+00      0.000000D+00      0.000000D+00
   zz         0.560007D+02      0.829845D+01      0.923327D+01

 ----------------------------------------------------------------------
 Unable to Open any file for archive entry.
 1\1\GINC-DESKTOP-B3RIHJD\Freq\UB3LYP\6-311G(d,p)\F1H2(2)\GARYX\22-Aug-
 2025\0\\# sp b3lyp/6-311g** Force nosymm scf=(qc)\\Title Card Required
 \\0,2\H,0.,0.,0.\H,-1.55,0.,0.\F,2.15,0.,0.\\Version=ES64L-G16RevC.01\
 HF=-100.8242843\S2=0.917718\S2-1=0.\S2A=0.750273\RMSD=1.068e-09\RMSF=2
 .551e-02\ZeroPoint=0.0047348\Thermal=0.0071585\ETot=-100.8171257\HTot=
 -100.8161815\GTot=-100.839551\Dipole=-0.671083,0.,0.\DipoleDeriv=-0.74
 69986,0.,0.,0.,0.0671101,0.,0.,0.,0.0671101,0.339761,0.,0.,0.,0.056961
 6,0.,0.,0.,0.0569616,0.4072376,0.,0.,0.,-0.1240717,0.,0.,0.,-0.1240717
 \Polar=56.0007074,0.,2.0781716,0.,0.,2.0781716\Quadrupole=-0.0091864,0
 .0045932,0.0045932,0.,0.,0.\PG=C*V [C*(H1H1F1)]\NImag=2\\-0.11167916,0
 .,0.02447979,0.,0.,0.02447979,0.07704376,0.,0.,-0.06361573,0.,-0.02054
 237,0.,0.,0.02057052,0.,0.,-0.02054237,0.,0.,0.02057052,0.03463540,0.,
 0.,-0.01342803,0.,0.,-0.02120737,0.,-0.00393742,0.,0.,-0.00002815,0.,0
 .,0.00396557,0.,0.,-0.00393742,0.,0.,-0.00002815,0.,0.,0.00396557\\0.0
 4416770,0.,0.,-0.06037105,0.,0.,0.01620335,0.,0.\\\@
 The archive entry for this job was punched.


 The chemist is a guest at the physicist's table and
 frequently dines well.
                   -- Richard Bersohn
 Job cpu time:       0 days  0 hours  0 minutes 18.6 seconds.
 Elapsed time:       0 days  0 hours  0 minutes  2.6 seconds.
 File lengths (MBytes):  RWF=      6 Int=      0 D2E=      0 Chk=      1 Scr=      1
 Normal termination of Gaussian 16 at Fri Aug 22 17:07:14 2025.
