 Entering Gaussian System, Link 0=g16
 Initial command:
 /home/garyx/gaussian/g16/l1.exe "/tmp/gaussian_scratch/Gau-257728.inp" -scrdir="/tmp/gaussian_scratch/"
 Entering Link 1 = /home/garyx/gaussian/g16/l1.exe PID=    257730.
  
 Copyright (c) 1988-2019, Gaussian, Inc.  All Rights Reserved.
  
 This is part of the Gaussian(R) 16 program.  It is based on
 the Gaussian(R) 09 system (copyright 2009, Gaussian, Inc.),
 the Gaussian(R) 03 system (copyright 2003, Gaussian, Inc.),
 the Gaussian(R) 98 system (copyright 1998, Gaussian, Inc.),
 the Gaussian(R) 94 system (copyright 1995, Gaussian, Inc.),
 the Gaussian 92(TM) system (copyright 1992, Gaussian, Inc.),
 the Gaussian 90(TM) system (copyright 1990, Gaussian, Inc.),
 the Gaussian 88(TM) system (copyright 1988, Gaussian, Inc.),
 the Gaussian 86(TM) system (copyright 1986, Carnegie Mellon
 University), and the Gaussian 82(TM) system (copyright 1983,
 Carnegie Mellon University). Gaussian is a federally registered
 trademark of Gaussian, Inc.
  
 This software contains proprietary and confidential information,
 including trade secrets, belonging to Gaussian, Inc.
  
 This software is provided under written license and may be
 used, copied, transmitted, or stored only in accord with that
 written license.
  
 The following legend is applicable only to US Government
 contracts under FAR:
  
                    RESTRICTED RIGHTS LEGEND
  
 Use, reproduction and disclosure by the US Government is
 subject to restrictions as set forth in subparagraphs (a)
 and (c) of the Commercial Computer Software - Restricted
 Rights clause in FAR 52.227-19.
  
 Gaussian, Inc.
 340 Quinnipiac St., Bldg. 40, Wallingford CT 06492
  
  
 ---------------------------------------------------------------
 Warning -- This program may not be used in any manner that
 competes with the business of Gaussian, Inc. or will provide
 assistance to any competitor of Gaussian, Inc.  The licensee
 of this program is prohibited from giving any competitor of
 Gaussian, Inc. access to this program.  By using this program,
 the user acknowledges that Gaussian, Inc. is engaged in the
 business of creating and licensing software in the field of
 computational chemistry and represents and warrants to the
 licensee that it is not a competitor of Gaussian, Inc. and that
 it will not use this program in any manner prohibited above.
 ---------------------------------------------------------------
  

 Cite this work as:
 Gaussian 16, Revision C.01,
 M. J. Frisch, G. W. Trucks, H. B. Schlegel, G. E. Scuseria, 
 M. A. Robb, J. R. Cheeseman, G. Scalmani, V. Barone, 
 G. A. Petersson, H. Nakatsuji, X. Li, M. Caricato, A. V. Marenich, 
 J. Bloino, B. G. Janesko, R. Gomperts, B. Mennucci, H. P. Hratchian, 
 J. V. Ortiz, A. F. Izmaylov, J. L. Sonnenberg, D. Williams-Young, 
 F. Ding, F. Lipparini, F. Egidi, J. Goings, B. Peng, A. Petrone, 
 T. Henderson, D. Ranasinghe, V. G. Zakrzewski, J. Gao, N. Rega, 
 G. Zheng, W. Liang, M. Hada, M. Ehara, K. Toyota, R. Fukuda, 
 J. Hasegawa, M. Ishida, T. Nakajima, Y. Honda, O. Kitao, H. Nakai, 
 T. Vreven, K. Throssell, J. A. Montgomery, Jr., J. E. Peralta, 
 F. Ogliaro, M. J. Bearpark, J. J. Heyd, E. N. Brothers, K. N. Kudin, 
 V. N. Staroverov, T. A. Keith, R. Kobayashi, J. Normand, 
 K. Raghavachari, A. P. Rendell, J. C. Burant, S. S. Iyengar, 
 J. Tomasi, M. Cossi, J. M. Millam, M. Klene, C. Adamo, R. Cammi, 
 J. W. Ochterski, R. L. Martin, K. Morokuma, O. Farkas, 
 J. B. Foresman, and D. J. Fox, Gaussian, Inc., Wallingford CT, 2019.
 
 ******************************************
 Gaussian 16:  ES64L-G16RevC.01  3-Jul-2019
                22-Aug-2025 
 ******************************************
 %mem=10GB
 %nprocs=8
 Will use up to    8 processors via shared memory.
 -----------------------------------------
 # sp b3lyp/6-311g** Force nosymm scf=(qc)
 -----------------------------------------
 1/10=4,30=1,38=1/1,3;
 2/12=2,15=1,17=6,18=5,40=1/2;
 3/5=4,6=6,7=101,11=2,25=1,30=1,71=2,74=-5,140=1/1,2,3;
 4//1;
 5/5=2,8=3,38=5,98=1/8;
 8/6=4,10=90,11=11/1;
 11/6=1,8=1,9=11,15=111,16=1,31=1/1,2,10;
 10/6=1,31=1/2;
 6/7=2,8=2,9=2,10=2,28=1/1;
 7/8=1,10=1,25=1,30=1/1,2,3,16;
 1/10=4,30=1/3;
 99//99;
 -------------------
 Title Card Required
 -------------------
 Symbolic Z-matrix:
 Charge =  0 Multiplicity = 2
 H                     0.        0.        0. 
 H                    -2.3       0.        0. 
 F                     1.25      0.        0. 
 

 GradGradGradGradGradGradGradGradGradGradGradGradGradGradGradGradGradGrad
 Berny optimization.
 Initialization pass.
 Trust Radius=3.00D-01 FncErr=1.00D-07 GrdErr=1.00D-07 EigMax=2.50D+02 EigMin=1.00D-04
 Number of steps in this run=      2 maximum allowed number of steps=      2.
 GradGradGradGradGradGradGradGradGradGradGradGradGradGradGradGradGradGrad

                          Input orientation:                          
 ---------------------------------------------------------------------
 Center     Atomic      Atomic             Coordinates (Angstroms)
 Number     Number       Type             X           Y           Z
 ---------------------------------------------------------------------
      1          1           0        0.000000    0.000000    0.000000
      2          1           0       -2.300000    0.000000    0.000000
      3          9           0        1.250000    0.000000    0.000000
 ---------------------------------------------------------------------
                    Distance matrix (angstroms):
                    1          2          3
     1  H    0.000000
     2  H    2.300000   0.000000
     3  F    1.250000   3.550000   0.000000
 Symmetry turned off by external request.
 Stoichiometry    FH2(2)
 Framework group  C*V[C*(HHF)]
 Deg. of freedom     2
 Full point group                 C*V     NOp   4
 Rotational constants (GHZ):           0.0000000          38.3962225          38.3962225
 Standard basis: 6-311G(d,p) (5D, 7F)
    30 basis functions,    48 primitive gaussians,    31 cartesian basis functions
     6 alpha electrons        5 beta electrons
       nuclear repulsion energy         5.3817289945 Hartrees.
 NAtoms=    3 NActive=    3 NUniq=    3 SFac= 1.00D+00 NAtFMM=   60 NAOKFM=F Big=F
 Integral buffers will be    131072 words long.
 Raffenetti 2 integral format.
 Two-electron integral symmetry is turned off.
 One-electron integrals computed using PRISM.
 NBasis=    30 RedAO= T EigKep=  7.18D-02  NBF=    30
 NBsUse=    30 1.00D-06 EigRej= -1.00D+00 NBFU=    30
 ExpMin= 1.03D-01 ExpMax= 1.14D+04 ExpMxC= 1.72D+03 IAcc=3 IRadAn=         5 AccDes= 0.00D+00
 Harris functional with IExCor=  402 and IRadAn=       5 diagonalized for initial guess.
 HarFok:  IExCor=  402 AccDes= 0.00D+00 IRadAn=         5 IDoV= 1 UseB2=F ITyADJ=14
 ICtDFT=  3500011 ScaDFX=  1.000000  1.000000  1.000000  1.000000
 FoFCou: FMM=F IPFlag=           0 FMFlag=      100000 FMFlg1=           0
         NFxFlg=           0 DoJE=T BraDBF=F KetDBF=T FulRan=T
         wScrn=  0.000000 ICntrl=       500 IOpCl=  0 I1Cent=   200000004 NGrid=           0
         NMat0=    1 NMatS0=      1 NMatT0=    0 NMatD0=    1 NMtDS0=    0 NMtDT0=    0
 Symmetry not used in FoFCou.
 Initial guess <Sx>= 0.0000 <Sy>= 0.0000 <Sz>= 0.5000 <S**2>= 0.7500 S= 0.5000
 Keep R1 and R2 ints in memory in canonical form, NReq=7127049.
 Gradient too large for Newton-Raphson -- use scaled steepest descent instead.
     Minimum is close to point  2 DX=  7.91D-04 DF= -3.92D-07 DXR=  2.63D-03 DFR=  6.91D-06 which will be used.
 Gradient too large for Newton-Raphson -- use scaled steepest descent instead.
 Gradient too large for Newton-Raphson -- use scaled steepest descent instead.
     Accept linear search using points  1 and  2.
 LinEq1:  Iter=  0 NonCon=     1 RMS=4.63D-04 Max=5.80D-03 NDo=     1
 AX will form     1 AO Fock derivatives at one time.
 LinEq1:  Iter=  1 NonCon=     1 RMS=2.17D-04 Max=2.43D-03 NDo=     1
 LinEq1:  Iter=  2 NonCon=     1 RMS=2.05D-04 Max=2.31D-03 NDo=     1
 LinEq1:  Iter=  3 NonCon=     1 RMS=9.65D-05 Max=8.06D-04 NDo=     1
 LinEq1:  Iter=  4 NonCon=     1 RMS=1.03D-05 Max=1.12D-04 NDo=     1
 LinEq1:  Iter=  5 NonCon=     1 RMS=4.84D-07 Max=2.63D-06 NDo=     1
 LinEq1:  Iter=  6 NonCon=     1 RMS=7.06D-08 Max=4.64D-07 NDo=     1
 LinEq1:  Iter=  7 NonCon=     1 RMS=1.12D-08 Max=6.69D-08 NDo=     1
 LinEq1:  Iter=  8 NonCon=     0 RMS=1.12D-09 Max=7.82D-09 NDo=     1
 Linear equations converged to 1.640D-09 1.640D-08 after     8 iterations.
     Minimum is close to point  2 DX=  4.11D-04 DF= -6.08D-12 DXR=  4.11D-04 DFR=  1.68D-07 which will be used.
 LinEq1:  Iter=  0 NonCon=     1 RMS=1.95D-06 Max=1.89D-05 NDo=     1
 LinEq1:  Iter=  1 NonCon=     1 RMS=8.40D-07 Max=8.40D-06 NDo=     1
 LinEq1:  Iter=  2 NonCon=     1 RMS=3.26D-07 Max=2.51D-06 NDo=     1
 LinEq1:  Iter=  3 NonCon=     1 RMS=1.11D-07 Max=1.07D-06 NDo=     1
 LinEq1:  Iter=  4 NonCon=     1 RMS=3.91D-08 Max=3.22D-07 NDo=     1
 LinEq1:  Iter=  5 NonCon=     1 RMS=2.87D-09 Max=1.58D-08 NDo=     1
 LinEq1:  Iter=  6 NonCon=     1 RMS=4.65D-10 Max=3.15D-09 NDo=     1
 LinEq1:  Iter=  7 NonCon=     0 RMS=4.45D-11 Max=3.36D-10 NDo=     1
 Linear equations converged to 1.667D-10 1.667D-09 after     7 iterations.
 SCF Done:  E(UB3LYP) =  -100.914780508     a.u. after    6 cycles
            Convg  =    0.1789D-08                    28 Fock formations.
              S**2 =  0.7504                  -V/T =  2.0042
 <Sx>= 0.0000 <Sy>= 0.0000 <Sz>= 0.5000 <S**2>= 0.7504 S= 0.5002
 <L.S>=  0.00000000000    
 Annihilation of the first spin contaminant:
 S**2 before annihilation     0.7504,   after     0.7500
 DoSCS=F DFT=T ScalE2(SS,OS)=  1.000000  1.000000
 Range of M.O.s used for correlation:     1    30
 NBasis=    30 NAE=     6 NBE=     5 NFC=     0 NFV=     0
 NROrb=     30 NOA=     6 NOB=     5 NVA=    24 NVB=    25
 Symmetrizing basis deriv contribution to polar:
 IMax=3 JMax=2 DiffMx= 0.00D+00
 G2DrvN: will do     4 centers at a time, making    1 passes.
 Calling FoFCou, ICntrl=  3107 FMM=F I1Cent=   0 AccDes= 0.00D+00.
 End of G2Drv F.D. properties file   721 does not exist.
 End of G2Drv F.D. properties file   722 does not exist.
 End of G2Drv F.D. properties file   788 does not exist.
          IDoAtm=111
          Differentiating once with respect to electric field.
                with respect to dipole field.
          Differentiating once with respect to nuclear coordinates.
 Keep R1 and R2 ints in memory in canonical form, NReq=7101519.
          There are    12 degrees of freedom in the 1st order CPHF.  IDoFFX=6 NUNeed=     3.
      9 vectors produced by pass  0 Test12= 2.24D-15 8.33D-09 XBig12= 2.59D+01 3.05D+00.
 AX will form     9 AO Fock derivatives at one time.
      9 vectors produced by pass  1 Test12= 2.24D-15 8.33D-09 XBig12= 5.79D+00 8.22D-01.
      9 vectors produced by pass  2 Test12= 2.24D-15 8.33D-09 XBig12= 8.09D-02 1.60D-01.
      9 vectors produced by pass  3 Test12= 2.24D-15 8.33D-09 XBig12= 3.65D-04 6.73D-03.
      9 vectors produced by pass  4 Test12= 2.24D-15 8.33D-09 XBig12= 2.51D-06 5.43D-04.
      4 vectors produced by pass  5 Test12= 2.24D-15 8.33D-09 XBig12= 1.26D-08 3.98D-05.
      2 vectors produced by pass  6 Test12= 2.24D-15 8.33D-09 XBig12= 3.85D-11 2.08D-06.
      1 vectors produced by pass  7 Test12= 2.24D-15 8.33D-09 XBig12= 1.67D-14 4.65D-08.
 InvSVY:  IOpt=1 It=  1 EMax= 6.66D-16
 Solved reduced A of dimension    52 with     9 vectors.
 Isotropic polarizability for W=    0.000000        6.61 Bohr**3.
 End of Minotr F.D. properties file   721 does not exist.
 End of Minotr F.D. properties file   722 does not exist.
 End of Minotr F.D. properties file   788 does not exist.

 **********************************************************************

            Population analysis using the SCF Density.

 **********************************************************************

 Alpha  occ. eigenvalues --  -24.63995  -1.11397  -0.46846  -0.36983  -0.36983
 Alpha  occ. eigenvalues --   -0.35879
 Alpha virt. eigenvalues --   -0.05972   0.24330   0.27831   0.93357   0.93357
 Alpha virt. eigenvalues --    1.01603   1.17480   1.21607   1.21607   1.34203
 Alpha virt. eigenvalues --    1.34652   1.34652   1.72358   2.12166   2.28246
 Alpha virt. eigenvalues --    3.83732   3.83732   3.86092   3.86092   4.35633
 Alpha virt. eigenvalues --    6.04483   6.04483   6.14167  66.64639
  Beta  occ. eigenvalues --  -24.63903  -1.11163  -0.46435  -0.36898  -0.36898
  Beta virt. eigenvalues --   -0.13147  -0.02808   0.27730   0.35514   0.93349
  Beta virt. eigenvalues --    0.93349   1.01831   1.23839   1.34388   1.34388
  Beta virt. eigenvalues --    1.41952   1.41952   1.47141   1.72574   2.26198
  Beta virt. eigenvalues --    2.38982   3.83777   3.83777   3.86361   3.86361
  Beta virt. eigenvalues --    4.35934   6.04559   6.04559   6.14551  66.64728
          Condensed to atoms (all electrons):
               1          2          3
     1  H    0.442649   0.013241   0.199965
     2  H    0.013241   0.970597  -0.001001
     3  F    0.199965  -0.001001   9.162344
          Atomic-Atomic Spin Densities.
               1          2          3
     1  H   -0.014517   0.009684  -0.001230
     2  H    0.009684   0.969684  -0.001426
     3  F   -0.001230  -0.001426   0.030777
 Mulliken charges and spin densities:
               1          2
     1  H    0.344145  -0.006063
     2  H    0.017163   0.977942
     3  F   -0.361309   0.028121
 Sum of Mulliken charges =  -0.00000   1.00000
 Mulliken charges and spin densities with hydrogens summed into heavy atoms:
               1          2
     3  F   -0.000000   1.000000
 APT charges:
               1
     1  H    0.377069
     2  H   -0.010512
     3  F   -0.366558
 Sum of APT charges =  -0.00000
 APT charges with hydrogens summed into heavy atoms:
               1
     3  F   -0.000000
 Electronic spatial extent (au):  <R**2>=             86.1065
 Charge=             -0.0000 electrons
 Dipole moment (field-independent basis, Debye):
    X=             -2.5496    Y=              0.0000    Z=              0.0000  Tot=              2.5496
 Quadrupole moment (field-independent basis, Debye-Ang):
   XX=             -8.5580   YY=             -7.1521   ZZ=             -7.1521
   XY=              0.0000   XZ=              0.0000   YZ=             -0.0000
 Traceless Quadrupole moment (field-independent basis, Debye-Ang):
   XX=             -0.9373   YY=              0.4686   ZZ=              0.4686
   XY=              0.0000   XZ=              0.0000   YZ=             -0.0000
 Octapole moment (field-independent basis, Debye-Ang**2):
  XXX=            -13.2769  YYY=              0.0000  ZZZ=              0.0000  XYY=             -3.3938
  XXY=              0.0000  XXZ=              0.0000  XZZ=             -3.3938  YZZ=              0.0000
  YYZ=              0.0000  XYZ=             -0.0000
 Hexadecapole moment (field-independent basis, Debye-Ang**3):
 XXXX=            -89.9052 YYYY=             -5.2420 ZZZZ=             -5.2420 XXXY=              0.0000
 XXXZ=              0.0000 YYYX=              0.0000 YYYZ=             -0.0000 ZZZX=              0.0000
 ZZZY=             -0.0000 XXYY=            -16.7339 XXZZ=            -16.7339 YYZZ=             -1.7473
 XXYZ=             -0.0000 YYXZ=              0.0000 ZZXY=              0.0000
 N-N= 5.381728994535D+00 E-N=-2.523960647328D+02  KE= 1.004909335451D+02
  Exact polarizability:      15.154       0.000       2.334       0.000       0.000       2.334
 Approx polarizability:      19.761       0.000       2.289       0.000       0.000       2.289
                          Isotropic Fermi Contact Couplings
        Atom                 a.u.       MegaHertz       Gauss      10(-4) cm-1
     1  H(1)              -0.00543     -24.24960      -8.65286      -8.08880
     2  H(1)               0.29262    1307.99293     466.72440     436.29948
     3  F(19)             -0.00694     -29.19544     -10.41766      -9.73855
 --------------------------------------------------------
       Center         ----  Spin Dipole Couplings  ----
                      3XX-RR        3YY-RR        3ZZ-RR
 --------------------------------------------------------
     1   Atom        0.031365     -0.015682     -0.015682
     2   Atom        0.000899     -0.000450     -0.000450
     3   Atom        0.196879     -0.098440     -0.098440
 --------------------------------------------------------
                        XY            XZ            YZ
 --------------------------------------------------------
     1   Atom        0.000000      0.000000      0.000000
     2   Atom        0.000000      0.000000      0.000000
     3   Atom        0.000000      0.000000      0.000000
 --------------------------------------------------------


 ---------------------------------------------------------------------------------
              Anisotropic Spin Dipole Couplings in Principal Axis System
 ---------------------------------------------------------------------------------

       Atom             a.u.   MegaHertz   Gauss  10(-4) cm-1        Axes

              Baa    -0.0157    -8.367    -2.986    -2.791 -0.0000  1.0000  0.0000
     1 H(1)   Bbb    -0.0157    -8.367    -2.986    -2.791  0.0000  0.0000  1.0000
              Bcc     0.0314    16.735     5.971     5.582  1.0000  0.0000  0.0000
 
              Baa    -0.0004    -0.240    -0.086    -0.080 -0.0000  1.0000  0.0000
     2 H(1)   Bbb    -0.0004    -0.240    -0.086    -0.080  0.0000  0.0000  1.0000
              Bcc     0.0009     0.480     0.171     0.160  1.0000  0.0000  0.0000
 
              Baa    -0.0984   -49.439   -17.641   -16.491 -0.0000  1.0000  0.0000
     3 F(19)  Bbb    -0.0984   -49.439   -17.641   -16.491  0.0000  0.0000  1.0000
              Bcc     0.1969    98.878    35.282    32.982  1.0000  0.0000  0.0000
 

 ---------------------------------------------------------------------------------

 Calling FoFJK, ICntrl=    100127 FMM=F ISym2X=0 I1Cent= 0 IOpClX= 1 NMat=1 NMatS=1 NMatT=0.
 Full mass-weighted force constant matrix:
 Low frequencies --- -434.7808    0.0015    0.0015    0.0022  104.8163  104.8163
 Low frequencies ---  282.6707 1224.1850 1224.1850
 ******    1 imaginary frequencies (negative Signs) ****** 
 Diagonal vibrational polarizability:
       33.2326411       2.3730930       2.3730930
 Harmonic frequencies (cm**-1), IR intensities (KM/Mole), Raman scattering
 activities (A**4/AMU), depolarization ratios for plane and unpolarized
 incident light, reduced masses (AMU), force constants (mDyne/A),
 and normal coordinates:
                      1                      2                      3
                      A                      A                      A
 Frequencies --   -434.7808               282.6707              1156.1414
 Red. masses --      1.0079                 1.1084                 1.0267
 Frc consts  --      0.1123                 0.0522                 0.8086
 IR Inten    --    110.1146                52.1276               117.8701
  Atom  AN      X      Y      Z        X      Y      Z        X      Y      Z
     1   1     0.73   0.00   0.00     0.68  -0.00   0.00    -0.00   0.94  -0.00
     2   1    -0.69  -0.00  -0.00     0.73   0.00  -0.00     0.00  -0.33   0.00
     3   9    -0.00  -0.00  -0.00    -0.07   0.00  -0.00    -0.00  -0.03   0.00
                      4
                      A
 Frequencies --   1156.1414
 Red. masses --      1.0267
 Frc consts  --      0.8086
 IR Inten    --    117.8701
  Atom  AN      X      Y      Z
     1   1    -0.00   0.00   0.94
     2   1     0.00  -0.00  -0.33
     3   9     0.00  -0.00  -0.03

 -------------------
 - Thermochemistry -
 -------------------
 Temperature   298.150 Kelvin.  Pressure   1.00000 Atm.
 Atom     1 has atomic number  1 and mass   1.00783
 Atom     2 has atomic number  1 and mass   1.00783
 Atom     3 has atomic number  9 and mass  18.99840
 Molecular mass:    21.01405 amu.
 Principal axes and moments of inertia in atomic units:
                           1         2         3
     Eigenvalues --     0.00000  47.00309  47.00309
           X            1.00000  -0.00000   0.00000
           Y            0.00000   1.00000   0.00000
           Z            0.00000   0.00000   1.00000
 This molecule is a prolate symmetric top.
 Rotational symmetry number  1.
 Rotational temperature (Kelvin)      1.84273
 Rotational constant (GHZ):          38.396222
    1 imaginary frequencies ignored.
 Zero-point vibrational energy      15521.3 (Joules/Mol)
                                    3.70967 (Kcal/Mol)
 Warning -- explicit consideration of   1 degrees of freedom as
           vibrations may cause significant error
 Vibrational temperatures:    406.70  1663.43  1663.43
          (Kelvin)
 
 Zero-point correction=                           0.005912 (Hartree/Particle)
 Thermal correction to Energy=                    0.008754
 Thermal correction to Enthalpy=                  0.009699
 Thermal correction to Gibbs Free Energy=        -0.014133
 Sum of electronic and zero-point Energies=           -100.908869
 Sum of electronic and thermal Energies=              -100.906026
 Sum of electronic and thermal Enthalpies=            -100.905082
 Sum of electronic and thermal Free Energies=         -100.928913
 
                     E (Thermal)             CV                S
                      KCal/Mol        Cal/Mol-Kelvin    Cal/Mol-Kelvin
 Total                    5.493              7.144             50.157
 Electronic               0.000              0.000              1.377
 Translational            0.889              2.981             35.068
 Rotational               0.592              1.987             12.095
 Vibrational              4.012              2.176              1.617
 Vibration     1          0.682              1.706              1.517
                       Q            Log10(Q)             Ln(Q)
 Total Bot       0.316594D+07          6.500502         14.967959
 Total V=0       0.165848D+10          9.219711         21.229169
 Vib (Bot)       0.258392D-02         -2.587720         -5.958446
 Vib (Bot)    1  0.679199D+00         -0.168003         -0.386841
 Vib (V=0)       0.135359D+01          0.131489          0.302764
 Vib (V=0)    1  0.134339D+01          0.128203          0.295198
 Electronic      0.200000D+01          0.301030          0.693147
 Translational   0.378633D+07          6.578219         15.146908
 Rotational      0.161798D+03          2.208974          5.086350
 -------------------------------------------------------------------
 Center     Atomic                   Forces (Hartrees/Bohr)
 Number     Number              X              Y              Z
 -------------------------------------------------------------------
      1        1           0.125442522    0.000000000    0.000000000
      2        1           0.001688364    0.000000000   -0.000000000
      3        9          -0.127130886   -0.000000000   -0.000000000
 -------------------------------------------------------------------
 Cartesian Forces:  Max     0.127130886 RMS     0.059536113

 GradGradGradGradGradGradGradGradGradGradGradGradGradGradGradGradGradGrad
 Berny optimization.
 Search for a local minimum.
 Step number   1 out of a maximum of    2
 All quantities printed in internal units (Hartrees-Bohrs-Radians)
 Second derivative matrix not updated -- analytic derivatives used.
 The second derivative matrix:
                          X1        Y1        Z1        X2        Y2
           X1          -0.00249
           Y1          -0.00000   0.05432
           Z1          -0.00000   0.00000   0.05432
           X2           0.00498   0.00000   0.00000  -0.00196
           Y2          -0.00000  -0.00043  -0.00000   0.00000   0.00040
           Z2          -0.00000  -0.00000  -0.00043   0.00000   0.00000
           X3          -0.00248  -0.00000   0.00000  -0.00301  -0.00000
           Y3           0.00000  -0.05389  -0.00000  -0.00000   0.00002
           Z3           0.00000  -0.00000  -0.05389  -0.00000   0.00000
                          Z2        X3        Y3        Z3
           Z2           0.00040
           X3          -0.00000   0.00550
           Y3           0.00000   0.00000   0.05387
           Z3           0.00002  -0.00000   0.00000   0.05387
 ITU=  0
     Eigenvalues ---   -0.00721   0.00626   0.06873   0.06873
 Eigenvalue     1 is  -7.21D-03 should be greater than     0.000000 Eigenvector:
                          X1        X2        X3        Y1        Y2
   1                    0.72585  -0.68773  -0.01271   0.00000  -0.00000
                          Y3        Z1        Z2        Z3
   1                   -0.00000   0.00000  -0.00000  -0.00000
 Quadratic step=2.473D+01 exceeds max=3.000D-01 adjusted using Lamda=-5.309D-01.
 Angle between NR and scaled steps=   3.65 degrees.
 Angle between quadratic step and forces=  25.42 degrees.
 Linear search not attempted -- first point.
 B after Tr=    -0.071715   -0.000000    0.000000
         Rot=    0.767380    0.641193   -0.000000   -0.000000 Ang=  79.76 deg.
 Variable       Old X    -DE/DX   Delta X   Delta X   Delta X     New X
                                 (Linear)    (Quad)   (Total)
    X1        0.00000   0.12544   0.00000   0.27634   0.20462   0.20462
    Y1        0.00000   0.00000   0.00000   0.00000   0.00000   0.00000
    Z1        0.00000   0.00000   0.00000   0.00000  -0.00000  -0.00000
    X2       -4.34637   0.00169   0.00000   0.04638  -0.02533  -4.37170
    Y2        0.00000   0.00000   0.00000  -0.00000  -0.00000  -0.00000
    Z2        0.00000  -0.00000   0.00000  -0.00000   0.00000   0.00000
    X3        2.36216  -0.12713   0.00000  -0.10757  -0.17929   2.18287
    Y3        0.00000  -0.00000   0.00000  -0.00000  -0.00000  -0.00000
    Z3        0.00000  -0.00000   0.00000  -0.00000   0.00000   0.00000
         Item               Value     Threshold  Converged?
 Maximum Force            0.127131     0.000450     NO 
 RMS     Force            0.059536     0.000300     NO 
 Maximum Displacement     0.204621     0.001800     NO 
 RMS     Displacement     0.091077     0.001200     NO 
 Predicted change in Energy=-4.833134D-02
 GradGradGradGradGradGradGradGradGradGradGradGradGradGradGradGradGradGrad


 ----------------------------------------------------------------------

 Electric dipole moment (input orientation):
 (Debye = 10**-18 statcoulomb cm , SI units = C m)
                  (au)            (Debye)         (10**-30 SI)
   Tot        0.100310D+01      0.254963D+01      0.850466D+01
   x         -0.100310D+01     -0.254963D+01     -0.850466D+01
   y          0.000000D+00      0.000000D+00      0.000000D+00
   z          0.000000D+00      0.000000D+00      0.000000D+00

 Dipole polarizability, Alpha (input orientation).
 (esu units = cm**3 , SI units = C**2 m**2 J**-1)
 Alpha(0;0):
               (au)            (10**-24 esu)      (10**-40 SI)
   iso        0.660757D+01      0.979141D+00      0.108944D+01
   aniso      0.128198D+02      0.189970D+01      0.211370D+01
   xx         0.151541D+02      0.224561D+01      0.249857D+01
   yx         0.000000D+00      0.000000D+00      0.000000D+00
   yy         0.233430D+01      0.345908D+00      0.384875D+00
   zx         0.000000D+00      0.000000D+00      0.000000D+00
   zy         0.000000D+00      0.000000D+00      0.000000D+00
   zz         0.233430D+01      0.345908D+00      0.384875D+00

 ----------------------------------------------------------------------

 Dipole orientation:
     1          0.00000000          0.00000000          0.00000000
     1         -0.00000000         -0.00000000          4.34637009
     9          0.00000000          0.00000000         -2.36215766

 Electric dipole moment (dipole orientation):
 (Debye = 10**-18 statcoulomb cm , SI units = C m)
                  (au)            (Debye)         (10**-30 SI)
   Tot        0.100310D+01      0.254963D+01      0.850466D+01
   x          0.000000D+00      0.000000D+00      0.000000D+00
   y          0.000000D+00      0.000000D+00      0.000000D+00
   z          0.100310D+01      0.254963D+01      0.850466D+01

 Dipole polarizability, Alpha (dipole orientation).
 (esu units = cm**3 , SI units = C**2 m**2 J**-1)
 Alpha(0;0):
               (au)            (10**-24 esu)      (10**-40 SI)
   iso        0.660757D+01      0.979141D+00      0.108944D+01
   aniso      0.128198D+02      0.189970D+01      0.211370D+01
   xx         0.233430D+01      0.345908D+00      0.384875D+00
   yx         0.000000D+00      0.000000D+00      0.000000D+00
   yy         0.233430D+01      0.345908D+00      0.384875D+00
   zx         0.000000D+00      0.000000D+00      0.000000D+00
   zy         0.000000D+00      0.000000D+00      0.000000D+00
   zz         0.151541D+02      0.224561D+01      0.249857D+01

 ----------------------------------------------------------------------
 Unable to Open any file for archive entry.
 1\1\GINC-DESKTOP-B3RIHJD\Freq\UB3LYP\6-311G(d,p)\F1H2(2)\GARYX\22-Aug-
 2025\0\\# sp b3lyp/6-311g** Force nosymm scf=(qc)\\Title Card Required
 \\0,2\H,0.,0.,0.\H,-2.3,0.,0.\F,1.25,0.,0.\\Version=ES64L-G16RevC.01\H
 F=-100.9147805\S2=0.750386\S2-1=0.\S2A=0.75\RMSD=1.091e-10\RMSF=5.954e
 -02\ZeroPoint=0.0059117\Thermal=0.0087544\ETot=-100.9060261\HTot=-100.
 9050819\GTot=-100.928913\Dipole=-1.0031033,0.,0.\DipoleDeriv=0.3962168
 ,0.,0.,0.,0.3674955,0.,0.,0.,0.3674955,-0.0717903,0.,0.,0.,0.0201278,0
 .,0.,0.,0.0201278,-0.3244265,0.,0.,0.,-0.3876233,0.,0.,0.,-0.3876233\P
 olar=15.1540969,0.,2.3343044,0.,0.,2.3343044\Quadrupole=-0.6968395,0.3
 484198,0.3484198,0.,0.,0.\PG=C*V [C*(H1H1F1)]\NImag=1\\-0.00249312,0.,
 0.05431676,0.,0.,0.05431676,0.00497515,0.,0.,-0.00196070,0.,-0.0004267
 9,0.,0.,0.00040199,0.,0.,-0.00042679,0.,0.,0.00040199,-0.00248202,0.,0
 .,-0.00301445,0.,0.,0.00549647,0.,-0.05388997,0.,0.,0.00002480,0.,0.,0
 .05386518,0.,0.,-0.05388997,0.,0.,0.00002480,0.,0.,0.05386518\\-0.1254
 4252,0.,0.,-0.00168836,0.,0.,0.12713089,0.,0.\\\@
 The archive entry for this job was punched.


 It is also a good rule not to put too much confidence in
 experimental results until they have been confirmed by
 Theory.
                             -- Sir Arthur Eddington
 Job cpu time:       0 days  0 hours  0 minutes 14.0 seconds.
 Elapsed time:       0 days  0 hours  0 minutes  2.0 seconds.
 File lengths (MBytes):  RWF=      6 Int=      0 D2E=      0 Chk=      1 Scr=      1
 Normal termination of Gaussian 16 at Fri Aug 22 16:12:48 2025.
