 Entering Gaussian System, Link 0=g16
 Initial command:
 /home/garyx/gaussian/g16/l1.exe "/tmp/gaussian_scratch/Gau-869682.inp" -scrdir="/tmp/gaussian_scratch/"
 Entering Link 1 = /home/garyx/gaussian/g16/l1.exe PID=    869684.
  
 Copyright (c) 1988-2019, Gaussian, Inc.  All Rights Reserved.
  
 This is part of the Gaussian(R) 16 program.  It is based on
 the Gaussian(R) 09 system (copyright 2009, Gaussian, Inc.),
 the Gaussian(R) 03 system (copyright 2003, Gaussian, Inc.),
 the Gaussian(R) 98 system (copyright 1998, Gaussian, Inc.),
 the Gaussian(R) 94 system (copyright 1995, Gaussian, Inc.),
 the Gaussian 92(TM) system (copyright 1992, Gaussian, Inc.),
 the Gaussian 90(TM) system (copyright 1990, Gaussian, Inc.),
 the Gaussian 88(TM) system (copyright 1988, Gaussian, Inc.),
 the Gaussian 86(TM) system (copyright 1986, Carnegie Mellon
 University), and the Gaussian 82(TM) system (copyright 1983,
 Carnegie Mellon University). Gaussian is a federally registered
 trademark of Gaussian, Inc.
  
 This software contains proprietary and confidential information,
 including trade secrets, belonging to Gaussian, Inc.
  
 This software is provided under written license and may be
 used, copied, transmitted, or stored only in accord with that
 written license.
  
 The following legend is applicable only to US Government
 contracts under FAR:
  
                    RESTRICTED RIGHTS LEGEND
  
 Use, reproduction and disclosure by the US Government is
 subject to restrictions as set forth in subparagraphs (a)
 and (c) of the Commercial Computer Software - Restricted
 Rights clause in FAR 52.227-19.
  
 Gaussian, Inc.
 340 Quinnipiac St., Bldg. 40, Wallingford CT 06492
  
  
 ---------------------------------------------------------------
 Warning -- This program may not be used in any manner that
 competes with the business of Gaussian, Inc. or will provide
 assistance to any competitor of Gaussian, Inc.  The licensee
 of this program is prohibited from giving any competitor of
 Gaussian, Inc. access to this program.  By using this program,
 the user acknowledges that Gaussian, Inc. is engaged in the
 business of creating and licensing software in the field of
 computational chemistry and represents and warrants to the
 licensee that it is not a competitor of Gaussian, Inc. and that
 it will not use this program in any manner prohibited above.
 ---------------------------------------------------------------
  

 Cite this work as:
 Gaussian 16, Revision C.01,
 M. J. Frisch, G. W. Trucks, H. B. Schlegel, G. E. Scuseria, 
 M. A. Robb, J. R. Cheeseman, G. Scalmani, V. Barone, 
 G. A. Petersson, H. Nakatsuji, X. Li, M. Caricato, A. V. Marenich, 
 J. Bloino, B. G. Janesko, R. Gomperts, B. Mennucci, H. P. Hratchian, 
 J. V. Ortiz, A. F. Izmaylov, J. L. Sonnenberg, D. Williams-Young, 
 F. Ding, F. Lipparini, F. Egidi, J. Goings, B. Peng, A. Petrone, 
 T. Henderson, D. Ranasinghe, V. G. Zakrzewski, J. Gao, N. Rega, 
 G. Zheng, W. Liang, M. Hada, M. Ehara, K. Toyota, R. Fukuda, 
 J. Hasegawa, M. Ishida, T. Nakajima, Y. Honda, O. Kitao, H. Nakai, 
 T. Vreven, K. Throssell, J. A. Montgomery, Jr., J. E. Peralta, 
 F. Ogliaro, M. J. Bearpark, J. J. Heyd, E. N. Brothers, K. N. Kudin, 
 V. N. Staroverov, T. A. Keith, R. Kobayashi, J. Normand, 
 K. Raghavachari, A. P. Rendell, J. C. Burant, S. S. Iyengar, 
 J. Tomasi, M. Cossi, J. M. Millam, M. Klene, C. Adamo, R. Cammi, 
 J. W. Ochterski, R. L. Martin, K. Morokuma, O. Farkas, 
 J. B. Foresman, and D. J. Fox, Gaussian, Inc., Wallingford CT, 2019.
 
 ******************************************
 Gaussian 16:  ES64L-G16RevC.01  3-Jul-2019
                22-Aug-2025 
 ******************************************
 %mem=10GB
 %nprocs=8
 Will use up to    8 processors via shared memory.
 -----------------------------------------
 # sp b3lyp/6-311g** Force nosymm scf=(qc)
 -----------------------------------------
 1/10=4,30=1,38=1/1,3;
 2/12=2,15=1,17=6,18=5,40=1/2;
 3/5=4,6=6,7=101,11=2,25=1,30=1,71=2,74=-5,140=1/1,2,3;
 4//1;
 5/5=2,8=3,38=5,98=1/8;
 8/6=4,10=90,11=11/1;
 11/6=1,8=1,9=11,15=111,16=1,31=1/1,2,10;
 10/6=1,31=1/2;
 6/7=2,8=2,9=2,10=2,28=1/1;
 7/8=1,10=1,25=1,30=1/1,2,3,16;
 1/10=4,30=1/3;
 99//99;
 -------------------
 Title Card Required
 -------------------
 Symbolic Z-matrix:
 Charge =  0 Multiplicity = 2
 H                     0.        0.        0. 
 H                    -2.75      0.        0. 
 F                     3.25      0.        0. 
 

 GradGradGradGradGradGradGradGradGradGradGradGradGradGradGradGradGradGrad
 Berny optimization.
 Initialization pass.
 Trust Radius=3.00D-01 FncErr=1.00D-07 GrdErr=1.00D-07 EigMax=2.50D+02 EigMin=1.00D-04
 Number of steps in this run=      2 maximum allowed number of steps=      2.
 GradGradGradGradGradGradGradGradGradGradGradGradGradGradGradGradGradGrad

                          Input orientation:                          
 ---------------------------------------------------------------------
 Center     Atomic      Atomic             Coordinates (Angstroms)
 Number     Number       Type             X           Y           Z
 ---------------------------------------------------------------------
      1          1           0        0.000000    0.000000    0.000000
      2          1           0       -2.750000    0.000000    0.000000
      3          9           0        3.250000    0.000000    0.000000
 ---------------------------------------------------------------------
                    Distance matrix (angstroms):
                    1          2          3
     1  H    0.000000
     2  H    2.750000   0.000000
     3  F    3.250000   6.000000   0.000000
 Symmetry turned off by external request.
 Stoichiometry    FH2(2)
 Framework group  C*V[C*(HHF)]
 Deg. of freedom     2
 Full point group                 C*V     NOp   4
 Rotational constants (GHZ):           0.0000000          11.8103485          11.8103485
 Standard basis: 6-311G(d,p) (5D, 7F)
    30 basis functions,    48 primitive gaussians,    31 cartesian basis functions
     6 alpha electrons        5 beta electrons
       nuclear repulsion energy         2.4516077079 Hartrees.
 NAtoms=    3 NActive=    3 NUniq=    3 SFac= 1.00D+00 NAtFMM=   60 NAOKFM=F Big=F
 Integral buffers will be    131072 words long.
 Raffenetti 2 integral format.
 Two-electron integral symmetry is turned off.
 One-electron integrals computed using PRISM.
 NBasis=    30 RedAO= T EigKep=  8.89D-02  NBF=    30
 NBsUse=    30 1.00D-06 EigRej= -1.00D+00 NBFU=    30
 ExpMin= 1.03D-01 ExpMax= 1.14D+04 ExpMxC= 1.72D+03 IAcc=3 IRadAn=         5 AccDes= 0.00D+00
 Harris functional with IExCor=  402 and IRadAn=       5 diagonalized for initial guess.
 HarFok:  IExCor=  402 AccDes= 0.00D+00 IRadAn=         5 IDoV= 1 UseB2=F ITyADJ=14
 ICtDFT=  3500011 ScaDFX=  1.000000  1.000000  1.000000  1.000000
 FoFCou: FMM=F IPFlag=           0 FMFlag=      100000 FMFlg1=           0
         NFxFlg=           0 DoJE=T BraDBF=F KetDBF=T FulRan=T
         wScrn=  0.000000 ICntrl=       500 IOpCl=  0 I1Cent=   200000004 NGrid=           0
         NMat0=    1 NMatS0=      1 NMatT0=    0 NMatD0=    1 NMtDS0=    0 NMtDT0=    0
 Symmetry not used in FoFCou.
 Initial guess <Sx>= 0.0000 <Sy>= 0.0000 <Sz>= 0.5000 <S**2>= 0.7500 S= 0.5000
 Keep R1 and R2 ints in memory in canonical form, NReq=7127049.
 Gradient too large for Newton-Raphson -- use scaled steepest descent instead.
  Beta Gap=    -0.542 HL deriv= 1.24D-14 Rot set to   6.96D-01
     Minimum is close to point  3 DX=  3.43D-02 DF= -1.16D-03 DXR=  7.91D-02 DFR=  7.81D-03 which will be used.
 Gradient too large for Newton-Raphson -- use scaled steepest descent instead.
     Accept linear search using points  5 and  6.
 Gradient too large for Newton-Raphson -- use scaled steepest descent instead.
     Accept linear search using points  1 and  2.
 Gradient too large for Newton-Raphson -- use scaled steepest descent instead.
     Accept linear search using points  1 and  2.
 Gradient too large for Newton-Raphson -- use scaled steepest descent instead.
     Accept linear search using points  1 and  2.
 Gradient too large for Newton-Raphson -- use scaled steepest descent instead.
     Accept linear search using points  1 and  2.
 Gradient too large for Newton-Raphson -- use scaled steepest descent instead.
     Accept linear search using points  1 and  2.
 Gradient too large for Newton-Raphson -- use scaled steepest descent instead.
     Minimum is close to point  6 DX=  5.88D-02 DF= -5.50D-05 DXR=  3.55D-02 DFR=  1.63D-03 which will be used.
 Gradient too large for Newton-Raphson -- use scaled steepest descent instead.
 Gradient too large for Newton-Raphson -- use scaled steepest descent instead.
     Accept linear search using points  1 and  2.
 Gradient too large for Newton-Raphson -- use scaled steepest descent instead.
     Accept linear search using points  1 and  2.
 LinEq1:  Iter=  0 NonCon=     1 RMS=2.14D-03 Max=3.22D-02 NDo=     1
 AX will form     1 AO Fock derivatives at one time.
 LinEq1:  Iter=  1 NonCon=     1 RMS=3.62D-04 Max=2.06D-03 NDo=     1
 LinEq1:  Iter=  2 NonCon=     1 RMS=2.01D-04 Max=2.53D-03 NDo=     1
 LinEq1:  Iter=  3 NonCon=     1 RMS=9.02D-05 Max=8.14D-04 NDo=     1
 LinEq1:  Iter=  4 NonCon=     1 RMS=1.48D-05 Max=1.24D-04 NDo=     1
 LinEq1:  Iter=  5 NonCon=     1 RMS=1.50D-06 Max=1.30D-05 NDo=     1
 LinEq1:  Iter=  6 NonCon=     1 RMS=1.92D-07 Max=1.81D-06 NDo=     1
 LinEq1:  Iter=  7 NonCon=     1 RMS=5.39D-08 Max=5.20D-07 NDo=     1
 LinEq1:  Iter=  8 NonCon=     1 RMS=5.57D-09 Max=5.43D-08 NDo=     1
 LinEq1:  Iter=  9 NonCon=     0 RMS=9.92D-10 Max=1.17D-08 NDo=     1
 Linear equations converged to 1.640D-09 1.640D-08 after     9 iterations.
 Incorrect curvature in search direction -- initial direction reversed.
 LinEq1:  Iter=  0 NonCon=     1 RMS=2.55D-03 Max=3.84D-02 NDo=     1
 LinEq1:  Iter=  1 NonCon=     1 RMS=5.13D-04 Max=3.43D-03 NDo=     1
 LinEq1:  Iter=  2 NonCon=     1 RMS=2.55D-04 Max=3.34D-03 NDo=     1
 LinEq1:  Iter=  3 NonCon=     1 RMS=1.17D-04 Max=1.13D-03 NDo=     1
 LinEq1:  Iter=  4 NonCon=     1 RMS=1.27D-05 Max=1.04D-04 NDo=     1
 LinEq1:  Iter=  5 NonCon=     1 RMS=1.76D-06 Max=1.65D-05 NDo=     1
 LinEq1:  Iter=  6 NonCon=     1 RMS=2.51D-07 Max=2.74D-06 NDo=     1
 LinEq1:  Iter=  7 NonCon=     1 RMS=6.10D-08 Max=5.62D-07 NDo=     1
 LinEq1:  Iter=  8 NonCon=     1 RMS=7.52D-09 Max=6.57D-08 NDo=     1
 LinEq1:  Iter=  9 NonCon=     1 RMS=2.15D-09 Max=3.07D-08 NDo=     1
 LinEq1:  Iter= 10 NonCon=     0 RMS=9.31D-10 Max=6.04D-09 NDo=     1
 Linear equations converged to 1.640D-09 1.640D-08 after    10 iterations.
 Incorrect curvature in search direction -- initial direction reversed.
 Gradient too large for Newton-Raphson -- use scaled steepest descent instead.
 Gradient too large for Newton-Raphson -- use scaled steepest descent instead.
     Accept linear search using points  1 and  2.
 LinEq1:  Iter=  0 NonCon=     1 RMS=7.10D-04 Max=1.08D-02 NDo=     1
 LinEq1:  Iter=  1 NonCon=     1 RMS=1.57D-04 Max=2.16D-03 NDo=     1
 LinEq1:  Iter=  2 NonCon=     1 RMS=1.08D-04 Max=7.94D-04 NDo=     1
 LinEq1:  Iter=  3 NonCon=     1 RMS=1.33D-05 Max=1.52D-04 NDo=     1
 LinEq1:  Iter=  4 NonCon=     1 RMS=1.94D-06 Max=1.93D-05 NDo=     1
 LinEq1:  Iter=  5 NonCon=     1 RMS=1.60D-07 Max=1.30D-06 NDo=     1
 LinEq1:  Iter=  6 NonCon=     1 RMS=2.28D-08 Max=2.24D-07 NDo=     1
 LinEq1:  Iter=  7 NonCon=     1 RMS=5.79D-09 Max=5.95D-08 NDo=     1
 LinEq1:  Iter=  8 NonCon=     0 RMS=7.18D-10 Max=7.20D-09 NDo=     1
 Linear equations converged to 1.640D-09 1.640D-08 after     8 iterations.
 Incorrect curvature in search direction -- initial direction reversed.
 Gradient too large for Newton-Raphson -- use scaled steepest descent instead.
     Accept linear search using points  2 and  3.
 LinEq1:  Iter=  0 NonCon=     1 RMS=2.18D-04 Max=2.64D-03 NDo=     1
 LinEq1:  Iter=  1 NonCon=     1 RMS=7.35D-05 Max=5.07D-04 NDo=     1
 LinEq1:  Iter=  2 NonCon=     1 RMS=1.31D-04 Max=1.63D-03 NDo=     1
 LinEq1:  Iter=  3 NonCon=     1 RMS=8.71D-06 Max=7.43D-05 NDo=     1
 LinEq1:  Iter=  4 NonCon=     1 RMS=5.98D-07 Max=5.17D-06 NDo=     1
 LinEq1:  Iter=  5 NonCon=     1 RMS=1.37D-07 Max=1.23D-06 NDo=     1
 LinEq1:  Iter=  6 NonCon=     1 RMS=3.13D-08 Max=2.35D-07 NDo=     1
 LinEq1:  Iter=  7 NonCon=     1 RMS=3.13D-09 Max=3.95D-08 NDo=     1
 LinEq1:  Iter=  8 NonCon=     0 RMS=1.41D-09 Max=1.44D-08 NDo=     1
 Linear equations converged to 1.640D-09 1.640D-08 after     8 iterations.
 LinEq1:  Iter=  0 NonCon=     1 RMS=1.91D-04 Max=1.50D-03 NDo=     1
 LinEq1:  Iter=  1 NonCon=     1 RMS=1.16D-04 Max=1.01D-03 NDo=     1
 LinEq1:  Iter=  2 NonCon=     1 RMS=1.41D-04 Max=1.59D-03 NDo=     1
 LinEq1:  Iter=  3 NonCon=     1 RMS=1.31D-05 Max=1.22D-04 NDo=     1
 LinEq1:  Iter=  4 NonCon=     1 RMS=2.00D-06 Max=1.88D-05 NDo=     1
 LinEq1:  Iter=  5 NonCon=     1 RMS=2.16D-07 Max=1.33D-06 NDo=     1
 LinEq1:  Iter=  6 NonCon=     1 RMS=2.72D-08 Max=2.77D-07 NDo=     1
 LinEq1:  Iter=  7 NonCon=     1 RMS=6.33D-09 Max=5.12D-08 NDo=     1
 LinEq1:  Iter=  8 NonCon=     0 RMS=5.54D-10 Max=4.55D-09 NDo=     1
 Linear equations converged to 1.640D-09 1.640D-08 after     8 iterations.
     Accept linear search using points  1 and  2.
 LinEq1:  Iter=  0 NonCon=     1 RMS=1.98D-04 Max=1.62D-03 NDo=     1
 LinEq1:  Iter=  1 NonCon=     1 RMS=7.57D-05 Max=6.98D-04 NDo=     1
 LinEq1:  Iter=  2 NonCon=     1 RMS=8.60D-05 Max=1.07D-03 NDo=     1
 LinEq1:  Iter=  3 NonCon=     1 RMS=2.12D-05 Max=1.82D-04 NDo=     1
 LinEq1:  Iter=  4 NonCon=     1 RMS=1.80D-06 Max=1.53D-05 NDo=     1
 LinEq1:  Iter=  5 NonCon=     1 RMS=2.14D-07 Max=1.74D-06 NDo=     1
 LinEq1:  Iter=  6 NonCon=     1 RMS=4.73D-08 Max=4.56D-07 NDo=     1
 LinEq1:  Iter=  7 NonCon=     1 RMS=9.33D-09 Max=9.62D-08 NDo=     1
 LinEq1:  Iter=  8 NonCon=     0 RMS=8.52D-10 Max=5.74D-09 NDo=     1
 Linear equations converged to 1.640D-09 1.640D-08 after     8 iterations.
     Accept linear search using points  2 and  3.
 LinEq1:  Iter=  0 NonCon=     1 RMS=4.44D-05 Max=5.43D-04 NDo=     1
 LinEq1:  Iter=  1 NonCon=     1 RMS=1.22D-05 Max=1.21D-04 NDo=     1
 LinEq1:  Iter=  2 NonCon=     1 RMS=1.13D-05 Max=1.08D-04 NDo=     1
 LinEq1:  Iter=  3 NonCon=     1 RMS=1.85D-06 Max=1.92D-05 NDo=     1
 LinEq1:  Iter=  4 NonCon=     1 RMS=1.10D-07 Max=1.05D-06 NDo=     1
 LinEq1:  Iter=  5 NonCon=     1 RMS=1.39D-08 Max=1.41D-07 NDo=     1
 LinEq1:  Iter=  6 NonCon=     1 RMS=3.73D-09 Max=3.16D-08 NDo=     1
 LinEq1:  Iter=  7 NonCon=     0 RMS=2.81D-10 Max=1.89D-09 NDo=     1
 Linear equations converged to 1.640D-09 1.640D-08 after     7 iterations.
     Accept linear search using points  1 and  2.
     Minimum is close to point  2 DX= -6.52D-02 DF= -1.45D-08 DXR=  6.97D-02 DFR=  5.15D-03 which will be used.
 LinEq1:  Iter=  0 NonCon=     1 RMS=1.01D-05 Max=9.78D-05 NDo=     1
 LinEq1:  Iter=  1 NonCon=     1 RMS=2.93D-06 Max=2.56D-05 NDo=     1
 LinEq1:  Iter=  2 NonCon=     1 RMS=1.92D-06 Max=1.83D-05 NDo=     1
 LinEq1:  Iter=  3 NonCon=     1 RMS=6.38D-07 Max=8.96D-06 NDo=     1
 LinEq1:  Iter=  4 NonCon=     1 RMS=8.30D-08 Max=5.70D-07 NDo=     1
 LinEq1:  Iter=  5 NonCon=     1 RMS=1.05D-08 Max=1.04D-07 NDo=     1
 LinEq1:  Iter=  6 NonCon=     1 RMS=2.52D-09 Max=2.09D-08 NDo=     1
 LinEq1:  Iter=  7 NonCon=     0 RMS=4.10D-10 Max=4.13D-09 NDo=     1
 Linear equations converged to 1.640D-09 1.640D-08 after     7 iterations.
     Minimum is close to point  2 DX=  4.84D-03 DF= -1.28D-12 DXR=  4.82D-03 DFR=  2.29D-05 which will be used.
 LinEq1:  Iter=  0 NonCon=     1 RMS=6.74D-08 Max=6.48D-07 NDo=     1
 LinEq1:  Iter=  1 NonCon=     1 RMS=3.58D-08 Max=3.43D-07 NDo=     1
 LinEq1:  Iter=  2 NonCon=     1 RMS=3.76D-08 Max=4.66D-07 NDo=     1
 LinEq1:  Iter=  3 NonCon=     1 RMS=1.05D-08 Max=7.43D-08 NDo=     1
 LinEq1:  Iter=  4 NonCon=     1 RMS=2.34D-09 Max=2.33D-08 NDo=     1
 LinEq1:  Iter=  5 NonCon=     1 RMS=4.02D-10 Max=3.87D-09 NDo=     1
 LinEq1:  Iter=  6 NonCon=     1 RMS=5.18D-11 Max=4.09D-10 NDo=     1
 LinEq1:  Iter=  7 NonCon=     0 RMS=5.74D-12 Max=3.40D-11 NDo=     1
 Linear equations converged to 2.066D-11 2.066D-10 after     7 iterations.
 SCF Done:  E(UB3LYP) =  -100.761674201     a.u. after   24 cycles
            Convg  =    0.5020D-07                   134 Fock formations.
              S**2 =  1.6915                  -V/T =  2.0016
 <Sx>= 0.0000 <Sy>= 0.0000 <Sz>= 0.5000 <S**2>= 1.6915 S= 0.8934
 <L.S>=  0.00000000000    
 Annihilation of the first spin contaminant:
 S**2 before annihilation     1.6915,   after     0.7527
 DoSCS=F DFT=T ScalE2(SS,OS)=  1.000000  1.000000
 Range of M.O.s used for correlation:     1    30
 NBasis=    30 NAE=     6 NBE=     5 NFC=     0 NFV=     0
 NROrb=     30 NOA=     6 NOB=     5 NVA=    24 NVB=    25

 **** Warning!!: The smallest beta delta epsilon is  0.80381872D-01

 Symmetrizing basis deriv contribution to polar:
 IMax=3 JMax=2 DiffMx= 0.00D+00
 G2DrvN: will do     4 centers at a time, making    1 passes.
 Calling FoFCou, ICntrl=  3107 FMM=F I1Cent=   0 AccDes= 0.00D+00.
 End of G2Drv F.D. properties file   721 does not exist.
 End of G2Drv F.D. properties file   722 does not exist.
 End of G2Drv F.D. properties file   788 does not exist.
          IDoAtm=111
          Differentiating once with respect to electric field.
                with respect to dipole field.
          Differentiating once with respect to nuclear coordinates.
 Keep R1 and R2 ints in memory in canonical form, NReq=7101519.
          There are    12 degrees of freedom in the 1st order CPHF.  IDoFFX=6 NUNeed=     3.
      9 vectors produced by pass  0 Test12= 2.24D-15 8.33D-09 XBig12= 1.48D+02 1.17D+01.
 AX will form     9 AO Fock derivatives at one time.
      9 vectors produced by pass  1 Test12= 2.24D-15 8.33D-09 XBig12= 2.03D+00 4.89D-01.
      9 vectors produced by pass  2 Test12= 2.24D-15 8.33D-09 XBig12= 2.30D-01 3.07D-01.
      7 vectors produced by pass  3 Test12= 2.24D-15 8.33D-09 XBig12= 1.39D-03 1.65D-02.
      7 vectors produced by pass  4 Test12= 2.24D-15 8.33D-09 XBig12= 1.04D-05 1.24D-03.
      4 vectors produced by pass  5 Test12= 2.24D-15 8.33D-09 XBig12= 3.48D-08 6.52D-05.
      1 vectors produced by pass  6 Test12= 2.24D-15 8.33D-09 XBig12= 8.41D-11 5.26D-06.
      1 vectors produced by pass  7 Test12= 2.24D-15 8.33D-09 XBig12= 3.73D-14 6.97D-08.
 InvSVY:  IOpt=1 It=  1 EMax= 2.01D-15
 Solved reduced A of dimension    47 with     9 vectors.
 Isotropic polarizability for W=    0.000000       13.06 Bohr**3.
 End of Minotr F.D. properties file   721 does not exist.
 End of Minotr F.D. properties file   722 does not exist.
 End of Minotr F.D. properties file   788 does not exist.

 **********************************************************************

            Population analysis using the SCF Density.

 **********************************************************************

 Alpha  occ. eigenvalues --  -24.74897  -1.20895  -0.54017  -0.45354  -0.45354
 Alpha  occ. eigenvalues --   -0.32672
 Alpha virt. eigenvalues --   -0.09139   0.25234   0.34679   0.88519   0.91783
 Alpha virt. eigenvalues --    0.91783   1.02653   1.24904   1.24904   1.26226
 Alpha virt. eigenvalues --    1.42156   1.42156   1.42694   2.15839   2.38338
 Alpha virt. eigenvalues --    3.66274   3.68412   3.68412   3.75307   3.75307
 Alpha virt. eigenvalues --    5.87944   5.94728   5.94728  66.48132
  Beta  occ. eigenvalues --  -24.71815  -1.12050  -0.42268  -0.42268  -0.33271
  Beta virt. eigenvalues --   -0.25233  -0.08280   0.25086   0.35855   0.93261
  Beta virt. eigenvalues --    0.93261   0.97506   1.06598   1.24192   1.24192
  Beta virt. eigenvalues --    1.25409   1.43535   1.43535   1.44012   2.16494
  Beta virt. eigenvalues --    2.38558   3.76901   3.76901   3.77999   3.77999
  Beta virt. eigenvalues --    3.79969   5.97339   5.97339   6.01750  66.51198
          Condensed to atoms (all electrons):
               1          2          3
     1  H    0.967304   0.010322   0.003390
     2  H    0.010322   0.987676  -0.000000
     3  F    0.003390  -0.000000   9.017598
          Atomic-Atomic Spin Densities.
               1          2          3
     1  H   -0.961635   0.001186  -0.001692
     2  H    0.001186   0.984200  -0.000001
     3  F   -0.001692  -0.000001   0.978449
 Mulliken charges and spin densities:
               1          2
     1  H    0.018985  -0.962141
     2  H    0.002003   0.985385
     3  F   -0.020987   0.976757
 Sum of Mulliken charges =  -0.00000   1.00000
 Mulliken charges and spin densities with hydrogens summed into heavy atoms:
               1          2
     3  F   -0.000000   1.000000
 APT charges:
               1
     1  H   -0.037968
     2  H   -0.000515
     3  F    0.038482
 Sum of APT charges =  -0.00000
 APT charges with hydrogens summed into heavy atoms:
               1
     3  F   -0.000000
 Electronic spatial extent (au):  <R**2>=            383.5159
 Charge=             -0.0000 electrons
 Dipole moment (field-independent basis, Debye):
    X=             -0.3766    Y=              0.0000    Z=             -0.0000  Tot=              0.3766
 Quadrupole moment (field-independent basis, Debye-Ang):
   XX=             -7.6282   YY=             -7.6424   ZZ=             -7.6424
   XY=             -0.0000   XZ=              0.0000   YZ=              0.0000
 Traceless Quadrupole moment (field-independent basis, Debye-Ang):
   XX=              0.0095   YY=             -0.0047   ZZ=             -0.0047
   XY=             -0.0000   XZ=              0.0000   YZ=              0.0000
 Octapole moment (field-independent basis, Debye-Ang**2):
  XXX=            -31.8329  YYY=             -0.0000  ZZZ=              0.0000  XYY=            -11.9478
  XXY=             -0.0000  XXZ=              0.0000  XZZ=            -11.9478  YZZ=             -0.0000
  YYZ=              0.0000  XYZ=              0.0000
 Hexadecapole moment (field-independent basis, Debye-Ang**3):
 XXXX=           -330.7921 YYYY=             -6.3889 ZZZZ=             -6.3889 XXXY=             -0.0000
 XXXZ=              0.0000 YYYX=             -0.0000 YYYZ=              0.0000 ZZZX=              0.0000
 ZZZY=              0.0000 XXYY=            -63.8480 XXZZ=            -63.8480 YYZZ=             -2.1296
 XXYZ=              0.0000 YYXZ=              0.0000 ZZXY=             -0.0000
 N-N= 2.451607707934D+00 E-N=-2.458928340017D+02  KE= 1.006004603214D+02
  Exact polarizability:      35.130      -0.000       2.023       0.000       0.000       2.023
 Approx polarizability:      29.424      -0.000       1.927       0.000      -0.000       1.927
                          Isotropic Fermi Contact Couplings
        Atom                 a.u.       MegaHertz       Gauss      10(-4) cm-1
     1  H(1)              -0.28726   -1284.02521    -458.17212    -428.30471
     2  H(1)               0.29287    1309.10408     467.12089     436.67012
     3  F(19)              0.02926     123.12083      43.93258      41.06869
 --------------------------------------------------------
       Center         ----  Spin Dipole Couplings  ----
                      3XX-RR        3YY-RR        3ZZ-RR
 --------------------------------------------------------
     1   Atom        0.023113     -0.011556     -0.011556
     2   Atom       -0.012068      0.006034      0.006034
     3   Atom        6.151471     -3.075735     -3.075735
 --------------------------------------------------------
                        XY            XZ            YZ
 --------------------------------------------------------
     1   Atom        0.000000     -0.000000      0.000000
     2   Atom        0.000000     -0.000000      0.000000
     3   Atom       -0.000002      0.000001      0.000000
 --------------------------------------------------------


 ---------------------------------------------------------------------------------
              Anisotropic Spin Dipole Couplings in Principal Axis System
 ---------------------------------------------------------------------------------

       Atom             a.u.   MegaHertz   Gauss  10(-4) cm-1        Axes

              Baa    -0.0116    -6.166    -2.200    -2.057 -0.0000  0.9774 -0.2114
     1 H(1)   Bbb    -0.0116    -6.166    -2.200    -2.057  0.0000  0.2114  0.9774
              Bcc     0.0231    12.332     4.400     4.113  1.0000  0.0000 -0.0000
 
              Baa    -0.0121    -6.439    -2.298    -2.148  1.0000 -0.0000  0.0000
     2 H(1)   Bbb     0.0060     3.219     1.149     1.074  0.0000  0.9739 -0.2269
              Bcc     0.0060     3.219     1.149     1.074  0.0000  0.2269  0.9739
 
              Baa    -3.0757 -1544.713  -551.192  -515.261  0.0000  0.9742 -0.2256
     3 F(19)  Bbb    -3.0757 -1544.713  -551.192  -515.261 -0.0000  0.2256  0.9742
              Bcc     6.1515  3089.426  1102.384  1030.522  1.0000 -0.0000  0.0000
 

 ---------------------------------------------------------------------------------

 Calling FoFJK, ICntrl=    100127 FMM=F ISym2X=0 I1Cent= 0 IOpClX= 1 NMat=1 NMatS=1 NMatT=0.
 Full mass-weighted force constant matrix:
 Low frequencies --- -501.2358 -176.8905   -0.0021    0.0020    0.0022   61.1609
 Low frequencies ---   61.1609  183.7998  183.7998
 ******    2 imaginary frequencies (negative Signs) ****** 
 Diagonal vibrational polarizability:
        9.7775516       0.2409649       0.2409649
 Harmonic frequencies (cm**-1), IR intensities (KM/Mole), Raman scattering
 activities (A**4/AMU), depolarization ratios for plane and unpolarized
 incident light, reduced masses (AMU), force constants (mDyne/A),
 and normal coordinates:
                      1                      2                      3
                      A                      A                      A
 Frequencies --   -501.2358              -176.8905               181.5911
 Red. masses --      1.0106                 1.1052                 1.0160
 Frc consts  --      0.1496                 0.0204                 0.0197
 IR Inten    --     15.0329                 9.4963                 0.2953
  Atom  AN      X      Y      Z        X      Y      Z        X      Y      Z
     1   1     0.81  -0.00   0.00     0.57  -0.00   0.00    -0.00   0.26   0.84
     2   1    -0.58   0.00  -0.00     0.82   0.00  -0.00    -0.00  -0.14  -0.46
     3   9    -0.01   0.00  -0.00    -0.07   0.00  -0.00     0.00  -0.01  -0.02
                      4
                      A
 Frequencies --    181.5911
 Red. masses --      1.0160
 Frc consts  --      0.0197
 IR Inten    --      0.2953
  Atom  AN      X      Y      Z
     1   1     0.00   0.84  -0.26
     2   1     0.00  -0.46   0.14
     3   9    -0.00  -0.02   0.01

 -------------------
 - Thermochemistry -
 -------------------
 Temperature   298.150 Kelvin.  Pressure   1.00000 Atm.
 Atom     1 has atomic number  1 and mass   1.00783
 Atom     2 has atomic number  1 and mass   1.00783
 Atom     3 has atomic number  9 and mass  18.99840
 Molecular mass:    21.01405 amu.
 Principal axes and moments of inertia in atomic units:
                           1         2         3
     Eigenvalues --     0.00000 152.81016 152.81016
           X            1.00000  -0.00000   0.00000
           Y            0.00000   1.00000   0.00000
           Z            0.00000   0.00000   1.00000
 This molecule is a prolate symmetric top.
 Rotational symmetry number  1.
 Rotational temperature (Kelvin)      0.56681
 Rotational constant (GHZ):          11.810349
    2 imaginary frequencies ignored.
 Zero-point vibrational energy       2172.3 (Joules/Mol)
                                    0.51920 (Kcal/Mol)
 Warning -- explicit consideration of   2 degrees of freedom as
           vibrations may cause significant error
 Vibrational temperatures:    261.27   261.27
          (Kelvin)
 
 Zero-point correction=                           0.000827 (Hartree/Particle)
 Thermal correction to Energy=                    0.004368
 Thermal correction to Enthalpy=                  0.005312
 Thermal correction to Gibbs Free Energy=        -0.021061
 Sum of electronic and zero-point Energies=           -100.760847
 Sum of electronic and thermal Energies=              -100.757306
 Sum of electronic and thermal Enthalpies=            -100.756362
 Sum of electronic and thermal Free Energies=         -100.782735
 
                     E (Thermal)             CV                S
                      KCal/Mol        Cal/Mol-Kelvin    Cal/Mol-Kelvin
 Total                    2.741              8.698             55.507
 Electronic               0.000              0.000              1.377
 Translational            0.889              2.981             35.068
 Rotational               0.592              1.987             14.438
 Vibrational              1.260              3.730              4.624
 Vibration     1          0.630              1.865              2.312
 Vibration     2          0.630              1.865              2.312
                       Q            Log10(Q)             Ln(Q)
 Total Bot       0.486772D+10          9.687326         22.305892
 Total V=0       0.116923D+11         10.067898         23.182193
 Vib (Bot)       0.122202D+01          0.087078          0.200504
 Vib (Bot)    1  0.110545D+01          0.043539          0.100252
 Vib (Bot)    2  0.110545D+01          0.043539          0.100252
 Vib (V=0)       0.293529D+01          0.467651          1.076805
 Vib (V=0)    1  0.171327D+01          0.233825          0.538403
 Vib (V=0)    2  0.171327D+01          0.233825          0.538403
 Electronic      0.200000D+01          0.301030          0.693147
 Translational   0.378633D+07          6.578219         15.146908
 Rotational      0.526016D+03          2.720999          6.265332
 -------------------------------------------------------------------
 Center     Atomic                   Forces (Hartrees/Bohr)
 Number     Number              X              Y              Z
 -------------------------------------------------------------------
      1        1          -0.000994999    0.000000000   -0.000000000
      2        1           0.002900839    0.000000000   -0.000000000
      3        9          -0.001905840   -0.000000000    0.000000000
 -------------------------------------------------------------------
 Cartesian Forces:  Max     0.002900839 RMS     0.001203565

 GradGradGradGradGradGradGradGradGradGradGradGradGradGradGradGradGradGrad
 Berny optimization.
 Search for a local minimum.
 Step number   1 out of a maximum of    2
 All quantities printed in internal units (Hartrees-Bohrs-Radians)
 Second derivative matrix not updated -- analytic derivatives used.
 The second derivative matrix:
                          X1        Y1        Z1        X2        Y2
           X1          -0.00668
           Y1           0.00000   0.00086
           Z1          -0.00000  -0.00000   0.00086
           X2           0.00401  -0.00000   0.00000  -0.00396
           Y2           0.00000  -0.00056  -0.00000  -0.00000   0.00056
           Z2          -0.00000  -0.00000  -0.00056   0.00000  -0.00000
           X3           0.00266  -0.00000   0.00000  -0.00005  -0.00000
           Y3          -0.00000  -0.00030   0.00000   0.00000   0.00000
           Z3           0.00000   0.00000  -0.00030  -0.00000   0.00000
                          Z2        X3        Y3        Z3
           Z2           0.00056
           X3           0.00000  -0.00261
           Y3           0.00000   0.00000   0.00030
           Z3           0.00000  -0.00000  -0.00000   0.00030
 ITU=  0
     Eigenvalues ---   -0.00993  -0.00237   0.00131   0.00131
 Eigenvalue     1 is  -9.93D-03 should be greater than     0.000000 Eigenvector:
                          X1        X2        X3        Y1        Z1
   1                    0.85881  -0.49797  -0.12028  -0.00000   0.00000
                          Y2        Z2        Y3        Z3
   1                    0.00000  -0.00000   0.00000  -0.00000
 Eigenvalue     2 is  -2.37D-03 should be greater than     0.000000 Eigenvector:
                          X2        X1        X3        Y1        Z1
   1                    0.81309   0.41417  -0.40909  -0.00000   0.00000
                          Y2        Z2        Y3        Z3
   1                    0.00000  -0.00000   0.00000  -0.00000
 Quadratic step=1.171D+00 exceeds max=3.000D-01 adjusted using Lamda=-7.508D-03.
 Angle between NR and scaled steps=  13.01 degrees.
 Angle between quadratic step and forces=  23.07 degrees.
 Linear search not attempted -- first point.
 B after Tr=    -0.065791   -0.000000   -0.000000
         Rot=    0.979572   -0.201096    0.000000    0.000000 Ang= -23.20 deg.
 Variable       Old X    -DE/DX   Delta X   Delta X   Delta X     New X
                                 (Linear)    (Quad)   (Total)
    X1        0.00000  -0.00099   0.00000   0.01244  -0.05335  -0.05335
    Y1        0.00000   0.00000   0.00000   0.00000   0.00000   0.00000
    Z1        0.00000  -0.00000   0.00000  -0.00000   0.00000   0.00000
    X2       -5.19675   0.00290   0.00000   0.28362   0.21782  -4.97892
    Y2        0.00000   0.00000   0.00000  -0.00000  -0.00000  -0.00000
    Z2        0.00000  -0.00000   0.00000   0.00000  -0.00000  -0.00000
    X3        6.14161  -0.00191   0.00000  -0.09869  -0.16448   5.97713
    Y3        0.00000  -0.00000   0.00000  -0.00000  -0.00000  -0.00000
    Z3        0.00000   0.00000   0.00000   0.00000  -0.00000  -0.00000
         Item               Value     Threshold  Converged?
 Maximum Force            0.002901     0.000450     NO 
 RMS     Force            0.001204     0.000300     NO 
 Maximum Displacement     0.217824     0.001800     NO 
 RMS     Displacement     0.092704     0.001200     NO 
 Predicted change in Energy=-1.158549D-03
 GradGradGradGradGradGradGradGradGradGradGradGradGradGradGradGradGradGrad


 ----------------------------------------------------------------------

 Electric dipole moment (input orientation):
 (Debye = 10**-18 statcoulomb cm , SI units = C m)
                  (au)            (Debye)         (10**-30 SI)
   Tot        0.148174D+00      0.376620D+00      0.125627D+01
   x         -0.148174D+00     -0.376620D+00     -0.125627D+01
   y          0.000000D+00      0.000000D+00      0.000000D+00
   z          0.000000D+00      0.000000D+00      0.000000D+00

 Dipole polarizability, Alpha (input orientation).
 (esu units = cm**3 , SI units = C**2 m**2 J**-1)
 Alpha(0;0):
               (au)            (10**-24 esu)      (10**-40 SI)
   iso        0.130584D+02      0.193506D+01      0.215304D+01
   aniso      0.331076D+02      0.490604D+01      0.545870D+01
   xx         0.351302D+02      0.520575D+01      0.579218D+01
   yx         0.000000D+00      0.000000D+00      0.000000D+00
   yy         0.202257D+01      0.299714D+00      0.333476D+00
   zx         0.000000D+00      0.000000D+00      0.000000D+00
   zy         0.000000D+00      0.000000D+00      0.000000D+00
   zz         0.202257D+01      0.299714D+00      0.333476D+00

 ----------------------------------------------------------------------

 Dipole orientation:
     1          0.00000000          0.00000000          0.00000000
     1          0.00000005         -0.00000025          5.19674684
     9         -0.00000006          0.00000029         -6.14160990

 Electric dipole moment (dipole orientation):
 (Debye = 10**-18 statcoulomb cm , SI units = C m)
                  (au)            (Debye)         (10**-30 SI)
   Tot        0.148174D+00      0.376620D+00      0.125627D+01
   x          0.000000D+00      0.000000D+00      0.000000D+00
   y          0.000000D+00      0.000000D+00      0.000000D+00
   z          0.148174D+00      0.376620D+00      0.125627D+01

 Dipole polarizability, Alpha (dipole orientation).
 (esu units = cm**3 , SI units = C**2 m**2 J**-1)
 Alpha(0;0):
               (au)            (10**-24 esu)      (10**-40 SI)
   iso        0.130584D+02      0.193506D+01      0.215304D+01
   aniso      0.331076D+02      0.490604D+01      0.545870D+01
   xx         0.202257D+01      0.299714D+00      0.333476D+00
   yx         0.000000D+00      0.000000D+00      0.000000D+00
   yy         0.202257D+01      0.299714D+00      0.333476D+00
   zx         0.000000D+00      0.000000D+00      0.000000D+00
   zy         0.000000D+00      0.000000D+00      0.000000D+00
   zz         0.351302D+02      0.520575D+01      0.579218D+01

 ----------------------------------------------------------------------
 Unable to Open any file for archive entry.
 1\1\GINC-DESKTOP-B3RIHJD\Freq\UB3LYP\6-311G(d,p)\F1H2(2)\GARYX\22-Aug-
 2025\0\\# sp b3lyp/6-311g** Force nosymm scf=(qc)\\Title Card Required
 \\0,2\H,0.,0.,0.\H,-2.75,0.,0.\F,3.25,0.,0.\\Version=ES64L-G16RevC.01\
 HF=-100.7616742\S2=1.69152\S2-1=0.\S2A=0.752724\RMSD=3.061e-09\RMSF=1.
 204e-03\Thermal=0.0043682\ETot=-100.757306\HTot=-100.7563619\GTot=-100
 .7827351\Dipole=-0.1481735,0.,0.\DipoleDeriv=-0.1548137,0.,0.,0.,0.020
 4556,0.,0.,0.,0.0204556,-0.0054012,0.,0.,0.,0.0019289,0.,0.,0.,0.00192
 89,0.160215,0.,0.,0.,-0.0223844,0.,0.,0.,-0.0223844\Polar=35.1301596,-
 0.0000002,2.0225684,0.,0.,2.0225684\Quadrupole=0.0070356,-0.0035178,-0
 .0035178,-0.0000001,0.,0.\PG=C*V [C*(H1H1F1)]\NImag=2\\-0.00667705,0.,
 0.00085652,0.,0.,0.00085652,0.00401275,0.,0.,-0.00395992,0.,-0.0005589
 7,0.,0.,0.00055881,0.,0.,-0.00055897,0.,0.,0.00055881,0.00266430,0.,0.
 ,-0.00005283,0.,0.,-0.00261147,0.,-0.00029755,0.,0.,0.00000016,0.,0.,0
 .00029739,0.,0.,-0.00029755,0.,0.,0.00000016,0.,0.,0.00029739\\0.00099
 500,0.,0.,-0.00290084,0.,0.,0.00190584,0.,0.\\\@
 The archive entry for this job was punched.


 A SLIP OF THE FOOT YOU MAY SOON RECOVER, BUT A SLIP OF THE TONGUE
 YOU MAY NEVER GET OVER. -- BEN FRANKLIN
 Job cpu time:       0 days  0 hours  0 minutes 26.9 seconds.
 Elapsed time:       0 days  0 hours  0 minutes  3.7 seconds.
 File lengths (MBytes):  RWF=      6 Int=      0 D2E=      0 Chk=      1 Scr=      1
 Normal termination of Gaussian 16 at Fri Aug 22 20:35:20 2025.
