 Entering Gaussian System, Link 0=g16
 Initial command:
 /home/garyx/gaussian/g16/l1.exe "/tmp/gaussian_scratch/Gau-1053103.inp" -scrdir="/tmp/gaussian_scratch/"
 Entering Link 1 = /home/garyx/gaussian/g16/l1.exe PID=   1053105.
  
 Copyright (c) 1988-2019, Gaussian, Inc.  All Rights Reserved.
  
 This is part of the Gaussian(R) 16 program.  It is based on
 the Gaussian(R) 09 system (copyright 2009, Gaussian, Inc.),
 the Gaussian(R) 03 system (copyright 2003, Gaussian, Inc.),
 the Gaussian(R) 98 system (copyright 1998, Gaussian, Inc.),
 the Gaussian(R) 94 system (copyright 1995, Gaussian, Inc.),
 the Gaussian 92(TM) system (copyright 1992, Gaussian, Inc.),
 the Gaussian 90(TM) system (copyright 1990, Gaussian, Inc.),
 the Gaussian 88(TM) system (copyright 1988, Gaussian, Inc.),
 the Gaussian 86(TM) system (copyright 1986, Carnegie Mellon
 University), and the Gaussian 82(TM) system (copyright 1983,
 Carnegie Mellon University). Gaussian is a federally registered
 trademark of Gaussian, Inc.
  
 This software contains proprietary and confidential information,
 including trade secrets, belonging to Gaussian, Inc.
  
 This software is provided under written license and may be
 used, copied, transmitted, or stored only in accord with that
 written license.
  
 The following legend is applicable only to US Government
 contracts under FAR:
  
                    RESTRICTED RIGHTS LEGEND
  
 Use, reproduction and disclosure by the US Government is
 subject to restrictions as set forth in subparagraphs (a)
 and (c) of the Commercial Computer Software - Restricted
 Rights clause in FAR 52.227-19.
  
 Gaussian, Inc.
 340 Quinnipiac St., Bldg. 40, Wallingford CT 06492
  
  
 ---------------------------------------------------------------
 Warning -- This program may not be used in any manner that
 competes with the business of Gaussian, Inc. or will provide
 assistance to any competitor of Gaussian, Inc.  The licensee
 of this program is prohibited from giving any competitor of
 Gaussian, Inc. access to this program.  By using this program,
 the user acknowledges that Gaussian, Inc. is engaged in the
 business of creating and licensing software in the field of
 computational chemistry and represents and warrants to the
 licensee that it is not a competitor of Gaussian, Inc. and that
 it will not use this program in any manner prohibited above.
 ---------------------------------------------------------------
  

 Cite this work as:
 Gaussian 16, Revision C.01,
 M. J. Frisch, G. W. Trucks, H. B. Schlegel, G. E. Scuseria, 
 M. A. Robb, J. R. Cheeseman, G. Scalmani, V. Barone, 
 G. A. Petersson, H. Nakatsuji, X. Li, M. Caricato, A. V. Marenich, 
 J. Bloino, B. G. Janesko, R. Gomperts, B. Mennucci, H. P. Hratchian, 
 J. V. Ortiz, A. F. Izmaylov, J. L. Sonnenberg, D. Williams-Young, 
 F. Ding, F. Lipparini, F. Egidi, J. Goings, B. Peng, A. Petrone, 
 T. Henderson, D. Ranasinghe, V. G. Zakrzewski, J. Gao, N. Rega, 
 G. Zheng, W. Liang, M. Hada, M. Ehara, K. Toyota, R. Fukuda, 
 J. Hasegawa, M. Ishida, T. Nakajima, Y. Honda, O. Kitao, H. Nakai, 
 T. Vreven, K. Throssell, J. A. Montgomery, Jr., J. E. Peralta, 
 F. Ogliaro, M. J. Bearpark, J. J. Heyd, E. N. Brothers, K. N. Kudin, 
 V. N. Staroverov, T. A. Keith, R. Kobayashi, J. Normand, 
 K. Raghavachari, A. P. Rendell, J. C. Burant, S. S. Iyengar, 
 J. Tomasi, M. Cossi, J. M. Millam, M. Klene, C. Adamo, R. Cammi, 
 J. W. Ochterski, R. L. Martin, K. Morokuma, O. Farkas, 
 J. B. Foresman, and D. J. Fox, Gaussian, Inc., Wallingford CT, 2019.
 
 ******************************************
 Gaussian 16:  ES64L-G16RevC.01  3-Jul-2019
                22-Aug-2025 
 ******************************************
 %mem=10GB
 %nprocs=8
 Will use up to    8 processors via shared memory.
 -----------------------------------------
 # sp b3lyp/6-311g** Force nosymm scf=(qc)
 -----------------------------------------
 1/10=4,30=1,38=1/1,3;
 2/12=2,15=1,17=6,18=5,40=1/2;
 3/5=4,6=6,7=101,11=2,25=1,30=1,71=2,74=-5,140=1/1,2,3;
 4//1;
 5/5=2,8=3,38=5,98=1/8;
 8/6=4,10=90,11=11/1;
 11/6=1,8=1,9=11,15=111,16=1,31=1/1,2,10;
 10/6=1,31=1/2;
 6/7=2,8=2,9=2,10=2,28=1/1;
 7/8=1,10=1,25=1,30=1/1,2,3,16;
 1/10=4,30=1/3;
 99//99;
 -------------------
 Title Card Required
 -------------------
 Symbolic Z-matrix:
 Charge =  0 Multiplicity = 2
 H                     0.        0.        0. 
 H                    -3.8       0.        0. 
 F                     3.65      0.        0. 
 

 GradGradGradGradGradGradGradGradGradGradGradGradGradGradGradGradGradGrad
 Berny optimization.
 Initialization pass.
 Trust Radius=3.00D-01 FncErr=1.00D-07 GrdErr=1.00D-07 EigMax=2.50D+02 EigMin=1.00D-04
 Number of steps in this run=      2 maximum allowed number of steps=      2.
 GradGradGradGradGradGradGradGradGradGradGradGradGradGradGradGradGradGrad

                          Input orientation:                          
 ---------------------------------------------------------------------
 Center     Atomic      Atomic             Coordinates (Angstroms)
 Number     Number       Type             X           Y           Z
 ---------------------------------------------------------------------
      1          1           0        0.000000    0.000000    0.000000
      2          1           0       -3.800000    0.000000    0.000000
      3          9           0        3.650000    0.000000    0.000000
 ---------------------------------------------------------------------
                    Distance matrix (angstroms):
                    1          2          3
     1  H    0.000000
     2  H    3.800000   0.000000
     3  F    3.650000   7.450000   0.000000
 Symmetry turned off by external request.
 Stoichiometry    FH2(2)
 Framework group  C*V[C*(HHF)]
 Deg. of freedom     2
 Full point group                 C*V     NOp   4
 Rotational constants (GHZ):           0.0000000           7.9702444           7.9702444
 Standard basis: 6-311G(d,p) (5D, 7F)
    30 basis functions,    48 primitive gaussians,    31 cartesian basis functions
     6 alpha electrons        5 beta electrons
       nuclear repulsion energy         2.0833521638 Hartrees.
 NAtoms=    3 NActive=    3 NUniq=    3 SFac= 1.00D+00 NAtFMM=   60 NAOKFM=F Big=F
 Integral buffers will be    131072 words long.
 Raffenetti 2 integral format.
 Two-electron integral symmetry is turned off.
 One-electron integrals computed using PRISM.
 NBasis=    30 RedAO= T EigKep=  8.91D-02  NBF=    30
 NBsUse=    30 1.00D-06 EigRej= -1.00D+00 NBFU=    30
 ExpMin= 1.03D-01 ExpMax= 1.14D+04 ExpMxC= 1.72D+03 IAcc=3 IRadAn=         5 AccDes= 0.00D+00
 Harris functional with IExCor=  402 and IRadAn=       5 diagonalized for initial guess.
 HarFok:  IExCor=  402 AccDes= 0.00D+00 IRadAn=         5 IDoV= 1 UseB2=F ITyADJ=14
 ICtDFT=  3500011 ScaDFX=  1.000000  1.000000  1.000000  1.000000
 FoFCou: FMM=F IPFlag=           0 FMFlag=      100000 FMFlg1=           0
         NFxFlg=           0 DoJE=T BraDBF=F KetDBF=T FulRan=T
         wScrn=  0.000000 ICntrl=       500 IOpCl=  0 I1Cent=   200000004 NGrid=           0
         NMat0=    1 NMatS0=      1 NMatT0=    0 NMatD0=    1 NMtDS0=    0 NMtDT0=    0
 Symmetry not used in FoFCou.
 Initial guess <Sx>= 0.0000 <Sy>= 0.0000 <Sz>= 0.5000 <S**2>= 0.7500 S= 0.5000
 Keep R1 and R2 ints in memory in canonical form, NReq=7127049.
 Gradient too large for Newton-Raphson -- use scaled steepest descent instead.
  Beta Gap=    -0.530 HL deriv= 8.39D-17 Rot set to   3.58D-01
     Minimum is close to point  3 DX=  3.79D-02 DF= -1.04D-03 DXR=  8.66D-02 DFR=  8.02D-03 which will be used.
 Gradient too large for Newton-Raphson -- use scaled steepest descent instead.
     Accept linear search using points  4 and  5.
 Gradient too large for Newton-Raphson -- use scaled steepest descent instead.
     Accept linear search using points  3 and  4.
 Gradient too large for Newton-Raphson -- use scaled steepest descent instead.
 Gradient too large for Newton-Raphson -- use scaled steepest descent instead.
 Gradient too large for Newton-Raphson -- use scaled steepest descent instead.
     Minimum is close to point  3 DX=  1.43D-02 DF= -2.54D-05 DXR=  2.78D-02 DFR=  7.74D-04 which will be used.
 Gradient too large for Newton-Raphson -- use scaled steepest descent instead.
 Gradient too large for Newton-Raphson -- use scaled steepest descent instead.
 Gradient too large for Newton-Raphson -- use scaled steepest descent instead.
 Gradient too large for Newton-Raphson -- use scaled steepest descent instead.
     Accept linear search using points  2 and  3.
 Gradient too large for Newton-Raphson -- use scaled steepest descent instead.
     Accept linear search using points  1 and  2.
 Gradient too large for Newton-Raphson -- use scaled steepest descent instead.
     Accept linear search using points  3 and  4.
 Gradient too large for Newton-Raphson -- use scaled steepest descent instead.
     Accept linear search using points  1 and  2.
 LinEq1:  Iter=  0 NonCon=     1 RMS=2.84D-03 Max=4.62D-02 NDo=     1
 AX will form     1 AO Fock derivatives at one time.
 LinEq1:  Iter=  1 NonCon=     1 RMS=3.98D-04 Max=2.64D-03 NDo=     1
 LinEq1:  Iter=  2 NonCon=     1 RMS=9.16D-05 Max=9.29D-04 NDo=     1
 LinEq1:  Iter=  3 NonCon=     1 RMS=4.36D-05 Max=5.46D-04 NDo=     1
 LinEq1:  Iter=  4 NonCon=     1 RMS=5.85D-06 Max=6.56D-05 NDo=     1
 LinEq1:  Iter=  5 NonCon=     1 RMS=3.59D-07 Max=2.70D-06 NDo=     1
 LinEq1:  Iter=  6 NonCon=     1 RMS=7.97D-08 Max=9.08D-07 NDo=     1
 LinEq1:  Iter=  7 NonCon=     1 RMS=1.50D-08 Max=1.10D-07 NDo=     1
 LinEq1:  Iter=  8 NonCon=     0 RMS=1.26D-09 Max=6.26D-09 NDo=     1
 Linear equations converged to 1.640D-09 1.640D-08 after     8 iterations.
     Accept linear search using points  1 and  2.
 LinEq1:  Iter=  0 NonCon=     1 RMS=1.32D-03 Max=2.13D-02 NDo=     1
 LinEq1:  Iter=  1 NonCon=     1 RMS=1.81D-04 Max=1.39D-03 NDo=     1
 LinEq1:  Iter=  2 NonCon=     1 RMS=6.28D-05 Max=4.71D-04 NDo=     1
 LinEq1:  Iter=  3 NonCon=     1 RMS=5.98D-06 Max=6.75D-05 NDo=     1
 LinEq1:  Iter=  4 NonCon=     1 RMS=2.49D-06 Max=2.80D-05 NDo=     1
 LinEq1:  Iter=  5 NonCon=     1 RMS=2.32D-07 Max=1.77D-06 NDo=     1
 LinEq1:  Iter=  6 NonCon=     1 RMS=4.75D-08 Max=5.45D-07 NDo=     1
 LinEq1:  Iter=  7 NonCon=     1 RMS=8.68D-09 Max=6.54D-08 NDo=     1
 LinEq1:  Iter=  8 NonCon=     0 RMS=8.36D-10 Max=5.11D-09 NDo=     1
 Linear equations converged to 1.640D-09 1.640D-08 after     8 iterations.
     Minimum is close to point  2 DX=  7.05D-02 DF= -3.41D-07 DXR=  6.58D-02 DFR=  4.35D-03 which will be used.
 LinEq1:  Iter=  0 NonCon=     1 RMS=8.17D-05 Max=1.27D-03 NDo=     1
 LinEq1:  Iter=  1 NonCon=     1 RMS=2.76D-05 Max=1.83D-04 NDo=     1
 LinEq1:  Iter=  2 NonCon=     1 RMS=6.85D-06 Max=7.29D-05 NDo=     1
 LinEq1:  Iter=  3 NonCon=     1 RMS=3.19D-06 Max=4.04D-05 NDo=     1
 LinEq1:  Iter=  4 NonCon=     1 RMS=1.95D-07 Max=1.91D-06 NDo=     1
 LinEq1:  Iter=  5 NonCon=     1 RMS=2.81D-08 Max=1.43D-07 NDo=     1
 LinEq1:  Iter=  6 NonCon=     1 RMS=3.85D-09 Max=4.11D-08 NDo=     1
 LinEq1:  Iter=  7 NonCon=     0 RMS=4.99D-10 Max=3.24D-09 NDo=     1
 Linear equations converged to 1.640D-09 1.640D-08 after     7 iterations.
 Incorrect curvature in search direction -- initial direction reversed.
     Minimum is close to point  3 DX=  2.39D-02 DF= -2.40D-10 DXR=  1.31D-02 DFR=  4.06D-04 which will be used.
 LinEq1:  Iter=  0 NonCon=     1 RMS=2.37D-04 Max=3.67D-03 NDo=     1
 LinEq1:  Iter=  1 NonCon=     1 RMS=7.77D-05 Max=5.18D-04 NDo=     1
 LinEq1:  Iter=  2 NonCon=     1 RMS=2.20D-05 Max=2.23D-04 NDo=     1
 LinEq1:  Iter=  3 NonCon=     1 RMS=9.43D-06 Max=1.18D-04 NDo=     1
 LinEq1:  Iter=  4 NonCon=     1 RMS=8.39D-07 Max=8.34D-06 NDo=     1
 LinEq1:  Iter=  5 NonCon=     1 RMS=9.30D-08 Max=4.49D-07 NDo=     1
 LinEq1:  Iter=  6 NonCon=     1 RMS=1.36D-08 Max=1.30D-07 NDo=     1
 LinEq1:  Iter=  7 NonCon=     1 RMS=2.49D-09 Max=2.69D-08 NDo=     1
 LinEq1:  Iter=  8 NonCon=     0 RMS=5.62D-10 Max=3.44D-09 NDo=     1
 Linear equations converged to 1.640D-09 1.640D-08 after     8 iterations.
 Incorrect curvature in search direction -- initial direction reversed.
 LinEq1:  Iter=  0 NonCon=     1 RMS=3.59D-04 Max=5.55D-03 NDo=     1
 LinEq1:  Iter=  1 NonCon=     1 RMS=1.13D-04 Max=7.50D-04 NDo=     1
 LinEq1:  Iter=  2 NonCon=     1 RMS=3.87D-05 Max=4.33D-04 NDo=     1
 LinEq1:  Iter=  3 NonCon=     1 RMS=1.57D-05 Max=1.80D-04 NDo=     1
 LinEq1:  Iter=  4 NonCon=     1 RMS=1.62D-06 Max=1.56D-05 NDo=     1
 LinEq1:  Iter=  5 NonCon=     1 RMS=1.46D-07 Max=7.09D-07 NDo=     1
 LinEq1:  Iter=  6 NonCon=     1 RMS=2.34D-08 Max=1.88D-07 NDo=     1
 LinEq1:  Iter=  7 NonCon=     1 RMS=3.16D-09 Max=2.62D-08 NDo=     1
 LinEq1:  Iter=  8 NonCon=     0 RMS=8.97D-10 Max=7.92D-09 NDo=     1
 Linear equations converged to 1.640D-09 1.640D-08 after     8 iterations.
 Incorrect curvature in search direction -- initial direction reversed.
 LinEq1:  Iter=  0 NonCon=     1 RMS=4.30D-04 Max=6.41D-03 NDo=     1
 LinEq1:  Iter=  1 NonCon=     1 RMS=1.18D-04 Max=8.29D-04 NDo=     1
 LinEq1:  Iter=  2 NonCon=     1 RMS=6.59D-05 Max=8.33D-04 NDo=     1
 LinEq1:  Iter=  3 NonCon=     1 RMS=2.26D-05 Max=2.09D-04 NDo=     1
 LinEq1:  Iter=  4 NonCon=     1 RMS=3.11D-06 Max=2.77D-05 NDo=     1
 LinEq1:  Iter=  5 NonCon=     1 RMS=2.20D-07 Max=1.36D-06 NDo=     1
 LinEq1:  Iter=  6 NonCon=     1 RMS=4.51D-08 Max=3.50D-07 NDo=     1
 LinEq1:  Iter=  7 NonCon=     1 RMS=7.00D-09 Max=5.50D-08 NDo=     1
 LinEq1:  Iter=  8 NonCon=     1 RMS=1.64D-09 Max=1.12D-08 NDo=     1
 LinEq1:  Iter=  9 NonCon=     0 RMS=1.98D-10 Max=2.15D-09 NDo=     1
 Linear equations converged to 1.640D-09 1.640D-08 after     9 iterations.
     Accept linear search using points  1 and  2.
     Minimum is close to point  2 DX= -2.58D-02 DF= -5.86D-08 DXR=  2.65D-02 DFR=  9.90D-04 which will be used.
 LinEq1:  Iter=  0 NonCon=     1 RMS=1.79D-04 Max=1.45D-03 NDo=     1
 LinEq1:  Iter=  1 NonCon=     1 RMS=4.13D-05 Max=6.21D-04 NDo=     1
 LinEq1:  Iter=  2 NonCon=     1 RMS=1.70D-05 Max=1.57D-04 NDo=     1
 LinEq1:  Iter=  3 NonCon=     1 RMS=1.22D-05 Max=1.36D-04 NDo=     1
 LinEq1:  Iter=  4 NonCon=     1 RMS=1.66D-06 Max=1.56D-05 NDo=     1
 LinEq1:  Iter=  5 NonCon=     1 RMS=1.56D-07 Max=1.24D-06 NDo=     1
 LinEq1:  Iter=  6 NonCon=     1 RMS=1.95D-08 Max=1.93D-07 NDo=     1
 LinEq1:  Iter=  7 NonCon=     1 RMS=5.26D-09 Max=4.48D-08 NDo=     1
 LinEq1:  Iter=  8 NonCon=     0 RMS=5.28D-10 Max=4.67D-09 NDo=     1
 Linear equations converged to 1.640D-09 1.640D-08 after     8 iterations.
 LinEq1:  Iter=  0 NonCon=     1 RMS=1.49D-04 Max=1.18D-03 NDo=     1
 LinEq1:  Iter=  1 NonCon=     1 RMS=3.16D-05 Max=4.63D-04 NDo=     1
 LinEq1:  Iter=  2 NonCon=     1 RMS=1.04D-05 Max=1.08D-04 NDo=     1
 LinEq1:  Iter=  3 NonCon=     1 RMS=8.27D-06 Max=9.38D-05 NDo=     1
 LinEq1:  Iter=  4 NonCon=     1 RMS=8.98D-07 Max=6.20D-06 NDo=     1
 LinEq1:  Iter=  5 NonCon=     1 RMS=9.61D-08 Max=7.52D-07 NDo=     1
 LinEq1:  Iter=  6 NonCon=     1 RMS=1.33D-08 Max=1.35D-07 NDo=     1
 LinEq1:  Iter=  7 NonCon=     1 RMS=3.59D-09 Max=2.79D-08 NDo=     1
 LinEq1:  Iter=  8 NonCon=     0 RMS=4.28D-10 Max=3.22D-09 NDo=     1
 Linear equations converged to 1.640D-09 1.640D-08 after     8 iterations.
     Accept linear search using points  3 and  4.
 LinEq1:  Iter=  0 NonCon=     1 RMS=1.02D-04 Max=8.35D-04 NDo=     1
 LinEq1:  Iter=  1 NonCon=     1 RMS=2.61D-05 Max=2.76D-04 NDo=     1
 LinEq1:  Iter=  2 NonCon=     1 RMS=3.04D-05 Max=2.78D-04 NDo=     1
 LinEq1:  Iter=  3 NonCon=     1 RMS=1.21D-05 Max=1.23D-04 NDo=     1
 LinEq1:  Iter=  4 NonCon=     1 RMS=1.18D-06 Max=8.65D-06 NDo=     1
 LinEq1:  Iter=  5 NonCon=     1 RMS=1.02D-07 Max=9.93D-07 NDo=     1
 LinEq1:  Iter=  6 NonCon=     1 RMS=2.58D-08 Max=2.31D-07 NDo=     1
 LinEq1:  Iter=  7 NonCon=     1 RMS=2.88D-09 Max=2.33D-08 NDo=     1
 LinEq1:  Iter=  8 NonCon=     0 RMS=2.51D-10 Max=2.46D-09 NDo=     1
 Linear equations converged to 1.640D-09 1.640D-08 after     8 iterations.
     Accept linear search using points  3 and  4.
 LinEq1:  Iter=  0 NonCon=     1 RMS=6.47D-05 Max=7.51D-04 NDo=     1
 LinEq1:  Iter=  1 NonCon=     1 RMS=1.18D-05 Max=9.46D-05 NDo=     1
 LinEq1:  Iter=  2 NonCon=     1 RMS=6.95D-06 Max=7.29D-05 NDo=     1
 LinEq1:  Iter=  3 NonCon=     1 RMS=3.24D-06 Max=2.46D-05 NDo=     1
 LinEq1:  Iter=  4 NonCon=     1 RMS=4.76D-07 Max=4.04D-06 NDo=     1
 LinEq1:  Iter=  5 NonCon=     1 RMS=6.91D-08 Max=8.10D-07 NDo=     1
 LinEq1:  Iter=  6 NonCon=     1 RMS=1.37D-08 Max=1.07D-07 NDo=     1
 LinEq1:  Iter=  7 NonCon=     0 RMS=1.18D-09 Max=8.20D-09 NDo=     1
 Linear equations converged to 1.640D-09 1.640D-08 after     7 iterations.
 LinEq1:  Iter=  0 NonCon=     1 RMS=1.75D-05 Max=2.44D-04 NDo=     1
 LinEq1:  Iter=  1 NonCon=     1 RMS=3.62D-06 Max=2.31D-05 NDo=     1
 LinEq1:  Iter=  2 NonCon=     1 RMS=2.68D-06 Max=3.14D-05 NDo=     1
 LinEq1:  Iter=  3 NonCon=     1 RMS=6.44D-07 Max=6.03D-06 NDo=     1
 LinEq1:  Iter=  4 NonCon=     1 RMS=1.19D-07 Max=9.32D-07 NDo=     1
 LinEq1:  Iter=  5 NonCon=     1 RMS=1.65D-08 Max=1.99D-07 NDo=     1
 LinEq1:  Iter=  6 NonCon=     1 RMS=2.33D-09 Max=2.21D-08 NDo=     1
 LinEq1:  Iter=  7 NonCon=     0 RMS=2.60D-10 Max=1.34D-09 NDo=     1
 Linear equations converged to 1.640D-09 1.640D-08 after     7 iterations.
     Minimum is close to point  2 DX=  1.51D-02 DF= -1.82D-11 DXR=  1.49D-02 DFR=  2.21D-04 which will be used.
 LinEq1:  Iter=  0 NonCon=     1 RMS=4.05D-07 Max=3.93D-06 NDo=     1
 LinEq1:  Iter=  1 NonCon=     1 RMS=7.22D-08 Max=6.87D-07 NDo=     1
 LinEq1:  Iter=  2 NonCon=     1 RMS=7.63D-08 Max=9.83D-07 NDo=     1
 LinEq1:  Iter=  3 NonCon=     1 RMS=3.54D-08 Max=4.67D-07 NDo=     1
 LinEq1:  Iter=  4 NonCon=     1 RMS=1.07D-08 Max=6.74D-08 NDo=     1
 LinEq1:  Iter=  5 NonCon=     1 RMS=1.35D-09 Max=9.31D-09 NDo=     1
 LinEq1:  Iter=  6 NonCon=     1 RMS=2.75D-10 Max=2.75D-09 NDo=     1
 LinEq1:  Iter=  7 NonCon=     0 RMS=5.91D-11 Max=4.71D-10 NDo=     1
 Linear equations converged to 2.260D-10 2.260D-09 after     7 iterations.
 LinEq1:  Iter=  0 NonCon=     1 RMS=3.05D-08 Max=2.40D-07 NDo=     1
 LinEq1:  Iter=  1 NonCon=     1 RMS=1.77D-08 Max=2.21D-07 NDo=     1
 LinEq1:  Iter=  2 NonCon=     1 RMS=4.91D-09 Max=3.56D-08 NDo=     1
 LinEq1:  Iter=  3 NonCon=     1 RMS=1.97D-09 Max=1.66D-08 NDo=     1
 LinEq1:  Iter=  4 NonCon=     1 RMS=8.77D-10 Max=1.12D-08 NDo=     1
 LinEq1:  Iter=  5 NonCon=     1 RMS=2.83D-10 Max=2.19D-09 NDo=     1
 LinEq1:  Iter=  6 NonCon=     1 RMS=4.66D-11 Max=2.41D-10 NDo=     1
 LinEq1:  Iter=  7 NonCon=     0 RMS=6.12D-12 Max=4.70D-11 NDo=     1
 Linear equations converged to 1.618D-11 1.618D-10 after     7 iterations.
 LinEq1:  Iter=  0 NonCon=     1 RMS=3.26D-09 Max=2.50D-08 NDo=     1
 LinEq1:  Iter=  1 NonCon=     1 RMS=8.27D-10 Max=1.15D-08 NDo=     1
 LinEq1:  Iter=  2 NonCon=     1 RMS=2.59D-10 Max=1.95D-09 NDo=     1
 LinEq1:  Iter=  3 NonCon=     1 RMS=8.77D-11 Max=6.05D-10 NDo=     1
 LinEq1:  Iter=  4 NonCon=     1 RMS=4.12D-11 Max=5.68D-10 NDo=     1
 LinEq1:  Iter=  5 NonCon=     1 RMS=1.36D-11 Max=1.27D-10 NDo=     1
 LinEq1:  Iter=  6 NonCon=     0 RMS=2.22D-12 Max=2.26D-11 NDo=     1
 Linear equations converged to 2.314D-12 2.314D-11 after     6 iterations.
 QCLLim is confused:  Bigger=T Turned=T
 NLin=  3 IMin12=  1  2 I12=  0  2 IX=  1 XLMin= 0.000D+00 XLMax= 0.000D+00
 X = 0.000D+00 1.000D+00 2.000D+00
 DE= 0.000D+00 0.000D+00 2.842D-14
 QCLLim is confused:  Bigger=T Turned=T
 NLin=  4 IMin12=  1  2 I12=  0  2 IX=  1 XLMin= 0.000D+00 XLMax= 0.000D+00
 X = 0.000D+00 1.000D+00 2.000D+00 4.000D+00
 DE= 0.000D+00 0.000D+00 2.842D-14 5.684D-14
 QCLLim is confused:  Bigger=T Turned=T
 NLin=  5 IMin12=  1  2 I12=  0  2 IX=  1 XLMin= 0.000D+00 XLMax= 0.000D+00
 X = 0.000D+00 1.000D+00 2.000D+00 4.000D+00 8.000D+00
 DE= 0.000D+00 0.000D+00 2.842D-14 5.684D-14 3.411D-13
 SCF Done:  E(UB3LYP) =  -100.758709501     a.u. after   28 cycles
            Convg  =    0.1396D-06                   188 Fock formations.
              S**2 =  1.7397                  -V/T =  2.0014
 <Sx>= 0.0000 <Sy>= 0.0000 <Sz>= 0.5000 <S**2>= 1.7397 S= 0.9106
 <L.S>=  0.00000000000    
 Annihilation of the first spin contaminant:
 S**2 before annihilation     1.7397,   after     0.7530
 DoSCS=F DFT=T ScalE2(SS,OS)=  1.000000  1.000000
 Range of M.O.s used for correlation:     1    30
 NBasis=    30 NAE=     6 NBE=     5 NFC=     0 NFV=     0
 NROrb=     30 NOA=     6 NOB=     5 NVA=    24 NVB=    25

 **** Warning!!: The smallest beta delta epsilon is  0.70652338D-01

 Symmetrizing basis deriv contribution to polar:
 IMax=3 JMax=2 DiffMx= 0.00D+00
 G2DrvN: will do     4 centers at a time, making    1 passes.
 Calling FoFCou, ICntrl=  3107 FMM=F I1Cent=   0 AccDes= 0.00D+00.
 End of G2Drv F.D. properties file   721 does not exist.
 End of G2Drv F.D. properties file   722 does not exist.
 End of G2Drv F.D. properties file   788 does not exist.
          IDoAtm=111
          Differentiating once with respect to electric field.
                with respect to dipole field.
          Differentiating once with respect to nuclear coordinates.
 Keep R1 and R2 ints in memory in canonical form, NReq=7101526.
          There are    12 degrees of freedom in the 1st order CPHF.  IDoFFX=6 NUNeed=     3.
      9 vectors produced by pass  0 Test12= 2.24D-15 8.33D-09 XBig12= 8.10D+01 8.89D+00.
 AX will form     9 AO Fock derivatives at one time.
      9 vectors produced by pass  1 Test12= 2.24D-15 8.33D-09 XBig12= 4.16D-01 2.55D-01.
      9 vectors produced by pass  2 Test12= 2.24D-15 8.33D-09 XBig12= 7.22D-02 1.79D-01.
      7 vectors produced by pass  3 Test12= 2.24D-15 8.33D-09 XBig12= 2.12D-04 5.70D-03.
      6 vectors produced by pass  4 Test12= 2.24D-15 8.33D-09 XBig12= 1.61D-06 5.00D-04.
      3 vectors produced by pass  5 Test12= 2.24D-15 8.33D-09 XBig12= 4.42D-09 2.79D-05.
      1 vectors produced by pass  6 Test12= 2.24D-15 8.33D-09 XBig12= 1.94D-11 2.15D-06.
      1 vectors produced by pass  7 Test12= 2.24D-15 8.33D-09 XBig12= 2.93D-14 6.20D-08.
 InvSVY:  IOpt=1 It=  1 EMax= 7.05D-14
 Solved reduced A of dimension    45 with     9 vectors.
 Isotropic polarizability for W=    0.000000        7.63 Bohr**3.
 End of Minotr F.D. properties file   721 does not exist.
 End of Minotr F.D. properties file   722 does not exist.
 End of Minotr F.D. properties file   788 does not exist.

 **********************************************************************

            Population analysis using the SCF Density.

 **********************************************************************

 Alpha  occ. eigenvalues --  -24.75596  -1.21544  -0.54720  -0.45943  -0.45943
 Alpha  occ. eigenvalues --   -0.32275
 Alpha virt. eigenvalues --   -0.06354   0.24169   0.37463   0.87174   0.91350
 Alpha virt. eigenvalues --    0.91350   1.01489   1.25221   1.25221   1.25269
 Alpha virt. eigenvalues --    1.46049   1.46049   1.46301   2.14703   2.42086
 Alpha virt. eigenvalues --    3.65522   3.67722   3.67722   3.74709   3.74709
 Alpha virt. eigenvalues --    5.86610   5.94116   5.94116  66.47341
  Beta  occ. eigenvalues --  -24.72469  -1.12554  -0.42808  -0.42808  -0.32654
  Beta virt. eigenvalues --   -0.25589  -0.06029   0.23935   0.38172   0.92843
  Beta virt. eigenvalues --    0.92843   0.96403   1.05546   1.24795   1.24795
  Beta virt. eigenvalues --    1.24825   1.46442   1.46597   1.46597   2.14793
  Beta virt. eigenvalues --    2.42188   3.76326   3.76326   3.77455   3.77455
  Beta virt. eigenvalues --    3.79464   5.96766   5.96766   6.00647  66.50455
          Condensed to atoms (all electrons):
               1          2          3
     1  H    0.990642   0.000770   0.001065
     2  H    0.000770   0.999170  -0.000000
     3  F    0.001065  -0.000000   9.006516
          Atomic-Atomic Spin Densities.
               1          2          3
     1  H   -0.990171   0.000038  -0.000500
     2  H    0.000038   0.998944  -0.000000
     3  F   -0.000500  -0.000000   0.992151
 Mulliken charges and spin densities:
               1          2
     1  H    0.007522  -0.990633
     2  H    0.000060   0.998982
     3  F   -0.007582   0.991652
 Sum of Mulliken charges =  -0.00000   1.00000
 Mulliken charges and spin densities with hydrogens summed into heavy atoms:
               1          2
     3  F   -0.000000   1.000000
 APT charges:
               1
     1  H   -0.018923
     2  H    0.000045
     3  F    0.018878
 Sum of APT charges =  -0.00000
 APT charges with hydrogens summed into heavy atoms:
               1
     3  F   -0.000000
 Electronic spatial extent (au):  <R**2>=            496.4437
 Charge=             -0.0000 electrons
 Dipole moment (field-independent basis, Debye):
    X=             -0.1436    Y=              0.0000    Z=              0.0000  Tot=              0.1436
 Quadrupole moment (field-independent basis, Debye-Ang):
   XX=             -7.2205   YY=             -7.6194   ZZ=             -7.6194
   XY=             -0.0000   XZ=             -0.0000   YZ=             -0.0000
 Traceless Quadrupole moment (field-independent basis, Debye-Ang):
   XX=              0.2660   YY=             -0.1330   ZZ=             -0.1330
   XY=             -0.0000   XZ=             -0.0000   YZ=             -0.0000
 Octapole moment (field-independent basis, Debye-Ang**2):
  XXX=            -29.6761  YYY=             -0.0000  ZZZ=             -0.0000  XYY=            -12.3914
  XXY=             -0.0000  XXZ=             -0.0000  XZZ=            -12.3914  YZZ=             -0.0000
  YYZ=             -0.0000  XYZ=             -0.0000
 Hexadecapole moment (field-independent basis, Debye-Ang**3):
 XXXX=           -450.1332 YYYY=             -6.3373 ZZZZ=             -6.3373 XXXY=             -0.0000
 XXXZ=             -0.0000 YYYX=             -0.0000 YYYZ=             -0.0000 ZZZX=             -0.0000
 ZZZY=             -0.0000 XXYY=            -86.6120 XXZZ=            -86.6120 YYZZ=             -2.1124
 XXYZ=             -0.0000 YYXZ=             -0.0000 ZZXY=             -0.0000
 N-N= 2.083352163836D+00 E-N=-2.451203421307D+02  KE= 1.006173088953D+02
  Exact polarizability:      18.942       0.000       1.980       0.000      -0.000       1.980
 Approx polarizability:      14.303      -0.000       1.935      -0.000       0.000       1.935
                          Isotropic Fermi Contact Couplings
        Atom                 a.u.       MegaHertz       Gauss      10(-4) cm-1
     1  H(1)              -0.29476   -1317.56000    -470.13817    -439.49071
     2  H(1)               0.29674    1326.37517     473.28364     442.43113
     3  F(19)              0.03032     127.55446      45.51460      42.54759
 --------------------------------------------------------
       Center         ----  Spin Dipole Couplings  ----
                      3XX-RR        3YY-RR        3ZZ-RR
 --------------------------------------------------------
     1   Atom        0.011874     -0.005937     -0.005937
     2   Atom       -0.004608      0.002304      0.002304
     3   Atom        6.239660     -3.119830     -3.119830
 --------------------------------------------------------
                        XY            XZ            YZ
 --------------------------------------------------------
     1   Atom        0.000000      0.000000     -0.000000
     2   Atom        0.000000      0.000000     -0.000000
     3   Atom       -0.000003     -0.000005      0.000000
 --------------------------------------------------------


 ---------------------------------------------------------------------------------
              Anisotropic Spin Dipole Couplings in Principal Axis System
 ---------------------------------------------------------------------------------

       Atom             a.u.   MegaHertz   Gauss  10(-4) cm-1        Axes

              Baa    -0.0059    -3.168    -1.130    -1.057 -0.0000  0.4532  0.8914
     1 H(1)   Bbb    -0.0059    -3.168    -1.130    -1.057 -0.0000  0.8914 -0.4532
              Bcc     0.0119     6.335     2.261     2.113  1.0000  0.0000  0.0000
 
              Baa    -0.0046    -2.459    -0.877    -0.820  1.0000 -0.0000 -0.0000
     2 H(1)   Bbb     0.0023     1.229     0.439     0.410  0.0000  0.4533  0.8913
              Bcc     0.0023     1.229     0.439     0.410  0.0000  0.8913 -0.4533
 
              Baa    -3.1198 -1566.859  -559.094  -522.648  0.0000  0.8900 -0.4559
     3 F(19)  Bbb    -3.1198 -1566.858  -559.094  -522.648  0.0000  0.4559  0.8900
              Bcc     6.2397  3133.717  1118.188  1045.296  1.0000 -0.0000 -0.0000
 

 ---------------------------------------------------------------------------------

 Calling FoFJK, ICntrl=    100127 FMM=F ISym2X=0 I1Cent= 0 IOpClX= 1 NMat=1 NMatS=1 NMatT=0.
 Full mass-weighted force constant matrix:
 Low frequencies --- -192.6101  -77.2620    0.0013    0.0017    0.0017   28.9264
 Low frequencies ---   28.9265   99.3910   99.3962
 ******    2 imaginary frequencies (negative Signs) ****** 
 Diagonal vibrational polarizability:
        6.3662663       0.3448510       0.3448511
 Harmonic frequencies (cm**-1), IR intensities (KM/Mole), Raman scattering
 activities (A**4/AMU), depolarization ratios for plane and unpolarized
 incident light, reduced masses (AMU), force constants (mDyne/A),
 and normal coordinates:
                      1                      2                      3
                      A                      A                      A
 Frequencies --   -192.6101               -77.2620                93.2922
 Red. masses --      1.0338                 1.0787                 1.0184
 Frc consts  --      0.0226                 0.0038                 0.0052
 IR Inten    --      6.1355                 0.4249                 0.1115
  Atom  AN      X      Y      Z        X      Y      Z        X      Y      Z
     1   1     0.97   0.00   0.00     0.21   0.00   0.00    -0.00   0.77  -0.45
     2   1    -0.25  -0.00  -0.00     0.98  -0.00  -0.00     0.00  -0.38   0.22
     3   9    -0.04  -0.00  -0.00    -0.06  -0.00  -0.00     0.00  -0.02   0.01
                      4
                      A
 Frequencies --     93.2967
 Red. masses --      1.0184
 Frc consts  --      0.0052
 IR Inten    --      0.1115
  Atom  AN      X      Y      Z
     1   1    -0.00   0.45   0.77
     2   1    -0.00  -0.22  -0.38
     3   9     0.00  -0.01  -0.02

 -------------------
 - Thermochemistry -
 -------------------
 Temperature   298.150 Kelvin.  Pressure   1.00000 Atm.
 Atom     1 has atomic number  1 and mass   1.00783
 Atom     2 has atomic number  1 and mass   1.00783
 Atom     3 has atomic number  9 and mass  18.99840
 Molecular mass:    21.01405 amu.
 Principal axes and moments of inertia in atomic units:
                           1         2         3
     Eigenvalues --     0.00000 226.43486 226.43486
           X            1.00000  -0.00000   0.00000
           Y            0.00000   1.00000   0.00000
           Z            0.00000   0.00000   1.00000
 This molecule is a prolate symmetric top.
 Rotational symmetry number  1.
 Rotational temperature (Kelvin)      0.38251
 Rotational constant (GHZ):           7.970244
    2 imaginary frequencies ignored.
 Zero-point vibrational energy       1116.0 (Joules/Mol)
                                    0.26674 (Kcal/Mol)
 Warning -- explicit consideration of   2 degrees of freedom as
           vibrations may cause significant error
 Vibrational temperatures:    134.23   134.23
          (Kelvin)
 
 Zero-point correction=                           0.000425 (Hartree/Particle)
 Thermal correction to Energy=                    0.004281
 Thermal correction to Enthalpy=                  0.005225
 Thermal correction to Gibbs Free Energy=        -0.022734
 Sum of electronic and zero-point Energies=           -100.758284
 Sum of electronic and thermal Energies=              -100.754429
 Sum of electronic and thermal Enthalpies=            -100.753485
 Sum of electronic and thermal Free Energies=         -100.781443
 
                     E (Thermal)             CV                S
                      KCal/Mol        Cal/Mol-Kelvin    Cal/Mol-Kelvin
 Total                    2.686              8.876             58.844
 Electronic               0.000              0.000              1.377
 Translational            0.889              2.981             35.068
 Rotational               0.592              1.987             15.219
 Vibrational              1.205              3.908              7.180
 Vibration     1          0.602              1.954              3.590
 Vibration     2          0.602              1.954              3.590
                       Q            Log10(Q)             Ln(Q)
 Total Bot       0.286343D+11         10.456887         24.077872
 Total V=0       0.449170D+11         10.652410         24.528081
 Vib (Bot)       0.485119D+01          0.685848          1.579223
 Vib (Bot)    1  0.220259D+01          0.342934          0.789636
 Vib (Bot)    2  0.220249D+01          0.342913          0.789588
 Vib (V=0)       0.760977D+01          0.881371          2.029433
 Vib (V=0)    1  0.275863D+01          0.440694          1.014735
 Vib (V=0)    2  0.275853D+01          0.440678          1.014697
 Electronic      0.200000D+01          0.301030          0.693147
 Translational   0.378633D+07          6.578219         15.146908
 Rotational      0.779454D+03          2.891790          6.658593
 -------------------------------------------------------------------
 Center     Atomic                   Forces (Hartrees/Bohr)
 Number     Number              X              Y              Z
 -------------------------------------------------------------------
      1        1           0.000410231    0.000000000    0.000000000
      2        1           0.000240545    0.000000000    0.000000000
      3        9          -0.000650775   -0.000000000   -0.000000000
 -------------------------------------------------------------------
 Cartesian Forces:  Max     0.000650775 RMS     0.000268672

 GradGradGradGradGradGradGradGradGradGradGradGradGradGradGradGradGradGrad
 Berny optimization.
 Search for a local minimum.
 Step number   1 out of a maximum of    2
 All quantities printed in internal units (Hartrees-Bohrs-Radians)
 Second derivative matrix not updated -- analytic derivatives used.
 The second derivative matrix:
                          X1        Y1        Z1        X2        Y2
           X1          -0.00130
           Y1          -0.00000   0.00036
           Z1          -0.00000   0.00000   0.00036
           X2           0.00029   0.00000  -0.00000  -0.00029
           Y2           0.00000  -0.00003   0.00000  -0.00000   0.00003
           Z2          -0.00000   0.00000  -0.00003  -0.00000   0.00000
           X3           0.00101   0.00000   0.00000  -0.00000   0.00000
           Y3           0.00000  -0.00032  -0.00000  -0.00000  -0.00000
           Z3           0.00000  -0.00000  -0.00033   0.00000  -0.00000
                          Z2        X3        Y3        Z3
           Z2           0.00003
           X3           0.00000  -0.00100
           Y3          -0.00000  -0.00000   0.00033
           Z3          -0.00000  -0.00000   0.00000   0.00033
 ITU=  0
     Eigenvalues ---   -0.00188  -0.00035   0.00041   0.00041
 Eigenvalue     1 is  -1.88D-03 should be greater than     0.000000 Eigenvector:
                          X1        X3        X2        Z1        Y1
   1                    0.95125  -0.30692  -0.03049   0.00000   0.00000
                          Z2        Y2        Z3        Y3
   1                   -0.00000  -0.00000  -0.00000  -0.00000
 Eigenvalue     2 is  -3.53D-04 should be greater than     0.000000 Eigenvector:
                          X2        X3        X1        Z1        Y1
   1                    0.95297  -0.29601  -0.06496   0.00000   0.00000
                          Z2        Y2        Z3        Y3
   1                   -0.00000  -0.00000  -0.00000  -0.00000
 Quadratic step=1.162D+00 exceeds max=3.000D-01 adjusted using Lamda=-1.309D-03.
 Angle between NR and scaled steps=  22.07 degrees.
 Angle between quadratic step and forces=  33.96 degrees.
 Linear search not attempted -- first point.
 B after Tr=    -0.084358   -0.000000    0.000000
         Rot=    0.761384   -0.648301    0.000000   -0.000000 Ang= -80.83 deg.
 Variable       Old X    -DE/DX   Delta X   Delta X   Delta X     New X
                                 (Linear)    (Quad)   (Total)
    X1        0.00000   0.00041   0.00000   0.15856   0.07420   0.07420
    Y1        0.00000   0.00000   0.00000  -0.00000   0.00000   0.00000
    Z1        0.00000   0.00000   0.00000  -0.00000  -0.00000  -0.00000
    X2       -7.18096   0.00024   0.00000   0.22105   0.13669  -7.04427
    Y2        0.00000   0.00000   0.00000   0.00000  -0.00000  -0.00000
    Z2        0.00000   0.00000   0.00000   0.00000   0.00000   0.00000
    X3        6.89750  -0.00065   0.00000  -0.12654  -0.21089   6.68661
    Y3        0.00000  -0.00000   0.00000   0.00000  -0.00000  -0.00000
    Z3        0.00000  -0.00000   0.00000   0.00000   0.00000   0.00000
         Item               Value     Threshold  Converged?
 Maximum Force            0.000651     0.000450     NO 
 RMS     Force            0.000269     0.000300     YES
 Maximum Displacement     0.210895     0.001800     NO 
 RMS     Displacement     0.087348     0.001200     NO 
 Predicted change in Energy=-2.419306D-04
 GradGradGradGradGradGradGradGradGradGradGradGradGradGradGradGradGradGrad


 ----------------------------------------------------------------------

 Electric dipole moment (input orientation):
 (Debye = 10**-18 statcoulomb cm , SI units = C m)
                  (au)            (Debye)         (10**-30 SI)
   Tot        0.565051D-01      0.143622D+00      0.479070D+00
   x         -0.565051D-01     -0.143622D+00     -0.479070D+00
   y          0.000000D+00      0.000000D+00      0.000000D+00
   z          0.000000D+00      0.000000D+00      0.000000D+00

 Dipole polarizability, Alpha (input orientation).
 (esu units = cm**3 , SI units = C**2 m**2 J**-1)
 Alpha(0;0):
               (au)            (10**-24 esu)      (10**-40 SI)
   iso        0.763389D+01      0.113123D+01      0.125866D+01
   aniso      0.169620D+02      0.251351D+01      0.279666D+01
   xx         0.189419D+02      0.280690D+01      0.312310D+01
   yx         0.000000D+00      0.000000D+00      0.000000D+00
   yy         0.197989D+01      0.293390D+00      0.326440D+00
   zx         0.000000D+00      0.000000D+00      0.000000D+00
   zy         0.000000D+00      0.000000D+00      0.000000D+00
   zz         0.197989D+01      0.293389D+00      0.326440D+00

 ----------------------------------------------------------------------

 Dipole orientation:
     1          0.00000000          0.00000000          0.00000000
     1         -0.00000080         -0.00000043          7.18095927
     9          0.00000076          0.00000041         -6.89750035

 Electric dipole moment (dipole orientation):
 (Debye = 10**-18 statcoulomb cm , SI units = C m)
                  (au)            (Debye)         (10**-30 SI)
   Tot        0.565051D-01      0.143622D+00      0.479070D+00
   x          0.000000D+00      0.000000D+00      0.000000D+00
   y          0.000000D+00      0.000000D+00      0.000000D+00
   z          0.565051D-01      0.143622D+00      0.479070D+00

 Dipole polarizability, Alpha (dipole orientation).
 (esu units = cm**3 , SI units = C**2 m**2 J**-1)
 Alpha(0;0):
               (au)            (10**-24 esu)      (10**-40 SI)
   iso        0.763389D+01      0.113123D+01      0.125866D+01
   aniso      0.169620D+02      0.251351D+01      0.279666D+01
   xx         0.197989D+01      0.293389D+00      0.326440D+00
   yx         0.000000D+00      0.000000D+00      0.000000D+00
   yy         0.197989D+01      0.293390D+00      0.326440D+00
   zx         0.000000D+00      0.000000D+00      0.000000D+00
   zy         0.000000D+00      0.000000D+00      0.000000D+00
   zz         0.189419D+02      0.280690D+01      0.312310D+01

 ----------------------------------------------------------------------
 Unable to Open any file for archive entry.
 1\1\GINC-DESKTOP-B3RIHJD\Freq\UB3LYP\6-311G(d,p)\F1H2(2)\GARYX\22-Aug-
 2025\0\\# sp b3lyp/6-311g** Force nosymm scf=(qc)\\Title Card Required
 \\0,2\H,0.,0.,0.\H,-3.8,0.,0.\F,3.65,0.,0.\\Version=ES64L-G16RevC.01\H
 F=-100.7587095\S2=1.739704\S2-1=0.\S2A=0.753022\RMSD=8.509e-09\RMSF=2.
 687e-04\Thermal=0.0042806\ETot=-100.7544289\HTot=-100.7534847\GTot=-10
 0.7814435\Dipole=-0.0565051,0.,0.\DipoleDeriv=-0.0802517,0.,0.,-0.0000
 002,0.0117416,0.0000002,-0.0000002,0.0000002,0.0117419,-0.0000204,0.,0
 .,0.,0.0000769,0.,0.,0.,0.0000769,0.0802721,0.,0.,0.0000002,-0.0118185
 ,-0.0000002,0.0000002,-0.0000002,-0.0118188\Polar=18.9418863,0.0000028
 ,1.9798928,0.000003,-0.0000036,1.9798887\Quadrupole=0.1977308,-0.09886
 54,-0.0988654,-0.0000002,-0.0000003,0.\PG=C*V [C*(H1H1F1)]\NImag=2\\-0
 .00129947,0.,0.00035802,0.,0.00000002,0.00035804,0.00029219,0.,0.,-0.0
 0028982,0.,-0.00003303,0.,0.,0.00003341,0.,0.,-0.00003303,0.,0.,0.0000
 3341,0.00100728,0.,0.,-0.00000237,0.,0.,-0.00100492,0.,-0.00032499,-0.
 00000002,0.,-0.00000038,0.,0.,0.00032537,0.,-0.00000002,-0.00032501,0.
 ,0.,-0.00000038,0.,0.00000002,0.00032539\\-0.00041023,0.,0.,-0.0002405
 4,0.,0.,0.00065078,0.,0.\\\@
 The archive entry for this job was punched.


 TRUTH, IN SCIENCE, CAN BE DEFINED AS THE WORKING HYPOTHESIS 
 BEST FITTED TO OPEN THE WAY TO THE NEXT BETTER ONE.

                              -- KONRAD LORENZ
 Job cpu time:       0 days  0 hours  0 minutes 31.6 seconds.
 Elapsed time:       0 days  0 hours  0 minutes  4.3 seconds.
 File lengths (MBytes):  RWF=      6 Int=      0 D2E=      0 Chk=      1 Scr=      1
 Normal termination of Gaussian 16 at Fri Aug 22 23:38:35 2025.
