 Entering Gaussian System, Link 0=g16
 Initial command:
 /home/garyx/gaussian/g16/l1.exe "/tmp/gaussian_scratch/Gau-154376.inp" -scrdir="/tmp/gaussian_scratch/"
 Entering Link 1 = /home/garyx/gaussian/g16/l1.exe PID=    154378.
  
 Copyright (c) 1988-2019, Gaussian, Inc.  All Rights Reserved.
  
 This is part of the Gaussian(R) 16 program.  It is based on
 the Gaussian(R) 09 system (copyright 2009, Gaussian, Inc.),
 the Gaussian(R) 03 system (copyright 2003, Gaussian, Inc.),
 the Gaussian(R) 98 system (copyright 1998, Gaussian, Inc.),
 the Gaussian(R) 94 system (copyright 1995, Gaussian, Inc.),
 the Gaussian 92(TM) system (copyright 1992, Gaussian, Inc.),
 the Gaussian 90(TM) system (copyright 1990, Gaussian, Inc.),
 the Gaussian 88(TM) system (copyright 1988, Gaussian, Inc.),
 the Gaussian 86(TM) system (copyright 1986, Carnegie Mellon
 University), and the Gaussian 82(TM) system (copyright 1983,
 Carnegie Mellon University). Gaussian is a federally registered
 trademark of Gaussian, Inc.
  
 This software contains proprietary and confidential information,
 including trade secrets, belonging to Gaussian, Inc.
  
 This software is provided under written license and may be
 used, copied, transmitted, or stored only in accord with that
 written license.
  
 The following legend is applicable only to US Government
 contracts under FAR:
  
                    RESTRICTED RIGHTS LEGEND
  
 Use, reproduction and disclosure by the US Government is
 subject to restrictions as set forth in subparagraphs (a)
 and (c) of the Commercial Computer Software - Restricted
 Rights clause in FAR 52.227-19.
  
 Gaussian, Inc.
 340 Quinnipiac St., Bldg. 40, Wallingford CT 06492
  
  
 ---------------------------------------------------------------
 Warning -- This program may not be used in any manner that
 competes with the business of Gaussian, Inc. or will provide
 assistance to any competitor of Gaussian, Inc.  The licensee
 of this program is prohibited from giving any competitor of
 Gaussian, Inc. access to this program.  By using this program,
 the user acknowledges that Gaussian, Inc. is engaged in the
 business of creating and licensing software in the field of
 computational chemistry and represents and warrants to the
 licensee that it is not a competitor of Gaussian, Inc. and that
 it will not use this program in any manner prohibited above.
 ---------------------------------------------------------------
  

 Cite this work as:
 Gaussian 16, Revision C.01,
 M. J. Frisch, G. W. Trucks, H. B. Schlegel, G. E. Scuseria, 
 M. A. Robb, J. R. Cheeseman, G. Scalmani, V. Barone, 
 G. A. Petersson, H. Nakatsuji, X. Li, M. Caricato, A. V. Marenich, 
 J. Bloino, B. G. Janesko, R. Gomperts, B. Mennucci, H. P. Hratchian, 
 J. V. Ortiz, A. F. Izmaylov, J. L. Sonnenberg, D. Williams-Young, 
 F. Ding, F. Lipparini, F. Egidi, J. Goings, B. Peng, A. Petrone, 
 T. Henderson, D. Ranasinghe, V. G. Zakrzewski, J. Gao, N. Rega, 
 G. Zheng, W. Liang, M. Hada, M. Ehara, K. Toyota, R. Fukuda, 
 J. Hasegawa, M. Ishida, T. Nakajima, Y. Honda, O. Kitao, H. Nakai, 
 T. Vreven, K. Throssell, J. A. Montgomery, Jr., J. E. Peralta, 
 F. Ogliaro, M. J. Bearpark, J. J. Heyd, E. N. Brothers, K. N. Kudin, 
 V. N. Staroverov, T. A. Keith, R. Kobayashi, J. Normand, 
 K. Raghavachari, A. P. Rendell, J. C. Burant, S. S. Iyengar, 
 J. Tomasi, M. Cossi, J. M. Millam, M. Klene, C. Adamo, R. Cammi, 
 J. W. Ochterski, R. L. Martin, K. Morokuma, O. Farkas, 
 J. B. Foresman, and D. J. Fox, Gaussian, Inc., Wallingford CT, 2019.
 
 ******************************************
 Gaussian 16:  ES64L-G16RevC.01  3-Jul-2019
                22-Aug-2025 
 ******************************************
 %mem=10GB
 %nprocs=8
 Will use up to    8 processors via shared memory.
 -----------------------------------------
 # sp b3lyp/6-311g** Force nosymm scf=(qc)
 -----------------------------------------
 1/10=4,30=1,38=1/1,3;
 2/12=2,15=1,17=6,18=5,40=1/2;
 3/5=4,6=6,7=101,11=2,25=1,30=1,71=2,74=-5,140=1/1,2,3;
 4//1;
 5/5=2,8=3,38=5,98=1/8;
 8/6=4,10=90,11=11/1;
 11/6=1,8=1,9=11,15=111,16=1,31=1/1,2,10;
 10/6=1,31=1/2;
 6/7=2,8=2,9=2,10=2,28=1/1;
 7/8=1,10=1,25=1,30=1/1,2,3,16;
 1/10=4,30=1/3;
 99//99;
 -------------------
 Title Card Required
 -------------------
 Symbolic Z-matrix:
 Charge =  0 Multiplicity = 2
 H                     0.        0.        0. 
 H                    -2.85      0.        0. 
 F                     0.85      0.        0. 
 

 GradGradGradGradGradGradGradGradGradGradGradGradGradGradGradGradGradGrad
 Berny optimization.
 Initialization pass.
 Trust Radius=3.00D-01 FncErr=1.00D-07 GrdErr=1.00D-07 EigMax=2.50D+02 EigMin=1.00D-04
 Number of steps in this run=      2 maximum allowed number of steps=      2.
 GradGradGradGradGradGradGradGradGradGradGradGradGradGradGradGradGradGrad

                          Input orientation:                          
 ---------------------------------------------------------------------
 Center     Atomic      Atomic             Coordinates (Angstroms)
 Number     Number       Type             X           Y           Z
 ---------------------------------------------------------------------
      1          1           0        0.000000    0.000000    0.000000
      2          1           0       -2.850000    0.000000    0.000000
      3          9           0        0.850000    0.000000    0.000000
 ---------------------------------------------------------------------
                    Distance matrix (angstroms):
                    1          2          3
     1  H    0.000000
     2  H    2.850000   0.000000
     3  F    0.850000   3.700000   0.000000
 Symmetry turned off by external request.
 Stoichiometry    FH2(2)
 Framework group  C*V[C*(HHF)]
 Deg. of freedom     2
 Full point group                 C*V     NOp   4
 Rotational constants (GHZ):           0.0000000          37.3673188          37.3673188
 Standard basis: 6-311G(d,p) (5D, 7F)
    30 basis functions,    48 primitive gaussians,    31 cartesian basis functions
     6 alpha electrons        5 beta electrons
       nuclear repulsion energy         7.0759168462 Hartrees.
 NAtoms=    3 NActive=    3 NUniq=    3 SFac= 1.00D+00 NAtFMM=   60 NAOKFM=F Big=F
 Integral buffers will be    131072 words long.
 Raffenetti 2 integral format.
 Two-electron integral symmetry is turned off.
 One-electron integrals computed using PRISM.
 NBasis=    30 RedAO= T EigKep=  2.25D-02  NBF=    30
 NBsUse=    30 1.00D-06 EigRej= -1.00D+00 NBFU=    30
 ExpMin= 1.03D-01 ExpMax= 1.14D+04 ExpMxC= 1.72D+03 IAcc=3 IRadAn=         5 AccDes= 0.00D+00
 Harris functional with IExCor=  402 and IRadAn=       5 diagonalized for initial guess.
 HarFok:  IExCor=  402 AccDes= 0.00D+00 IRadAn=         5 IDoV= 1 UseB2=F ITyADJ=14
 ICtDFT=  3500011 ScaDFX=  1.000000  1.000000  1.000000  1.000000
 FoFCou: FMM=F IPFlag=           0 FMFlag=      100000 FMFlg1=           0
         NFxFlg=           0 DoJE=T BraDBF=F KetDBF=T FulRan=T
         wScrn=  0.000000 ICntrl=       500 IOpCl=  0 I1Cent=   200000004 NGrid=           0
         NMat0=    1 NMatS0=      1 NMatT0=    0 NMatD0=    1 NMtDS0=    0 NMtDT0=    0
 Symmetry not used in FoFCou.
 Initial guess <Sx>= 0.0000 <Sy>= 0.0000 <Sz>= 0.5000 <S**2>= 0.7500 S= 0.5000
 Keep R1 and R2 ints in memory in canonical form, NReq=7127049.
 Gradient too large for Newton-Raphson -- use scaled steepest descent instead.
     Accept linear search using points  2 and  3.
 Gradient too large for Newton-Raphson -- use scaled steepest descent instead.
 Gradient too large for Newton-Raphson -- use scaled steepest descent instead.
     Accept linear search using points  1 and  2.
 LinEq1:  Iter=  0 NonCon=     1 RMS=2.79D-04 Max=3.41D-03 NDo=     1
 AX will form     1 AO Fock derivatives at one time.
 LinEq1:  Iter=  1 NonCon=     1 RMS=9.53D-05 Max=4.61D-04 NDo=     1
 LinEq1:  Iter=  2 NonCon=     1 RMS=1.43D-05 Max=8.61D-05 NDo=     1
 LinEq1:  Iter=  3 NonCon=     1 RMS=3.28D-06 Max=2.60D-05 NDo=     1
 LinEq1:  Iter=  4 NonCon=     1 RMS=4.26D-07 Max=2.87D-06 NDo=     1
 LinEq1:  Iter=  5 NonCon=     1 RMS=2.72D-08 Max=2.06D-07 NDo=     1
 LinEq1:  Iter=  6 NonCon=     1 RMS=2.09D-09 Max=1.32D-08 NDo=     1
 LinEq1:  Iter=  7 NonCon=     0 RMS=1.52D-10 Max=7.79D-10 NDo=     1
 Linear equations converged to 1.640D-09 1.640D-08 after     7 iterations.
     Minimum is close to point  2 DX=  1.42D-03 DF= -2.25D-11 DXR=  1.42D-03 DFR=  2.00D-06 which will be used.
 LinEq1:  Iter=  0 NonCon=     1 RMS=3.84D-07 Max=5.95D-06 NDo=     1
 LinEq1:  Iter=  1 NonCon=     1 RMS=2.02D-08 Max=1.55D-07 NDo=     1
 LinEq1:  Iter=  2 NonCon=     1 RMS=1.17D-08 Max=9.21D-08 NDo=     1
 LinEq1:  Iter=  3 NonCon=     1 RMS=3.47D-09 Max=3.03D-08 NDo=     1
 LinEq1:  Iter=  4 NonCon=     1 RMS=2.34D-10 Max=1.66D-09 NDo=     1
 LinEq1:  Iter=  5 NonCon=     1 RMS=5.49D-11 Max=4.11D-10 NDo=     1
 LinEq1:  Iter=  6 NonCon=     0 RMS=2.96D-12 Max=2.16D-11 NDo=     1
 Linear equations converged to 2.782D-11 2.782D-10 after     6 iterations.
 SCF Done:  E(UB3LYP) =  -100.965643397     a.u. after    6 cycles
            Convg  =    0.6543D-10                    26 Fock formations.
              S**2 =  0.7500                  -V/T =  1.9996
 <Sx>= 0.0000 <Sy>= 0.0000 <Sz>= 0.5000 <S**2>= 0.7500 S= 0.5000
 <L.S>=  0.00000000000    
 Annihilation of the first spin contaminant:
 S**2 before annihilation     0.7500,   after     0.7500
 DoSCS=F DFT=T ScalE2(SS,OS)=  1.000000  1.000000
 Range of M.O.s used for correlation:     1    30
 NBasis=    30 NAE=     6 NBE=     5 NFC=     0 NFV=     0
 NROrb=     30 NOA=     6 NOB=     5 NVA=    24 NVB=    25
 Symmetrizing basis deriv contribution to polar:
 IMax=3 JMax=2 DiffMx= 0.00D+00
 G2DrvN: will do     4 centers at a time, making    1 passes.
 Calling FoFCou, ICntrl=  3107 FMM=F I1Cent=   0 AccDes= 0.00D+00.
 End of G2Drv F.D. properties file   721 does not exist.
 End of G2Drv F.D. properties file   722 does not exist.
 End of G2Drv F.D. properties file   788 does not exist.
          IDoAtm=111
          Differentiating once with respect to electric field.
                with respect to dipole field.
          Differentiating once with respect to nuclear coordinates.
 Keep R1 and R2 ints in memory in canonical form, NReq=7101519.
          There are    12 degrees of freedom in the 1st order CPHF.  IDoFFX=6 NUNeed=     3.
      9 vectors produced by pass  0 Test12= 2.24D-15 8.33D-09 XBig12= 4.59D+00 1.22D+00.
 AX will form     9 AO Fock derivatives at one time.
      9 vectors produced by pass  1 Test12= 2.24D-15 8.33D-09 XBig12= 3.72D-01 1.90D-01.
      9 vectors produced by pass  2 Test12= 2.24D-15 8.33D-09 XBig12= 4.53D-03 2.23D-02.
      9 vectors produced by pass  3 Test12= 2.24D-15 8.33D-09 XBig12= 6.03D-06 1.23D-03.
      7 vectors produced by pass  4 Test12= 2.24D-15 8.33D-09 XBig12= 1.09D-08 4.36D-05.
      4 vectors produced by pass  5 Test12= 2.24D-15 8.33D-09 XBig12= 3.58D-11 2.15D-06.
      1 vectors produced by pass  6 Test12= 2.24D-15 8.33D-09 XBig12= 1.10D-13 1.12D-07.
 InvSVY:  IOpt=1 It=  1 EMax= 4.44D-16
 Solved reduced A of dimension    48 with     9 vectors.
 Isotropic polarizability for W=    0.000000        3.66 Bohr**3.
 End of Minotr F.D. properties file   721 does not exist.
 End of Minotr F.D. properties file   722 does not exist.
 End of Minotr F.D. properties file   788 does not exist.

 **********************************************************************

            Population analysis using the SCF Density.

 **********************************************************************

 Alpha  occ. eigenvalues --  -24.63822  -1.20872  -0.54994  -0.40103  -0.40103
 Alpha  occ. eigenvalues --   -0.34216
 Alpha virt. eigenvalues --    0.04729   0.25352   0.42453   0.94367   0.94367
 Alpha virt. eigenvalues --    0.97387   1.21676   1.23320   1.23320   1.34298
 Alpha virt. eigenvalues --    1.38391   1.38391   2.03541   2.14607   2.42974
 Alpha virt. eigenvalues --    3.80689   3.80689   4.12536   4.12536   4.77491
 Alpha virt. eigenvalues --    6.01959   6.01959   6.68382  66.70345
  Beta  occ. eigenvalues --  -24.63816  -1.20857  -0.54975  -0.40099  -0.40099
  Beta virt. eigenvalues --   -0.07387   0.05986   0.38410   0.42782   0.94368
  Beta virt. eigenvalues --    0.94368   0.97385   1.30192   1.38388   1.38388
  Beta virt. eigenvalues --    1.48643   1.48643   1.50915   2.03676   2.41970
  Beta virt. eigenvalues --    2.44485   3.80692   3.80692   4.12551   4.12551
  Beta virt. eigenvalues --    4.77489   6.01963   6.01963   6.68402  66.70350
          Condensed to atoms (all electrons):
               1          2          3
     1  H    0.421035   0.003963   0.292777
     2  H    0.003963   0.993328  -0.000215
     3  F    0.292777  -0.000215   8.992588
          Atomic-Atomic Spin Densities.
               1          2          3
     1  H   -0.001901   0.003202   0.000611
     2  H    0.003202   0.993109  -0.000365
     3  F    0.000611  -0.000365   0.001896
 Mulliken charges and spin densities:
               1          2
     1  H    0.282225   0.001911
     2  H    0.002925   0.995946
     3  F   -0.285150   0.002142
 Sum of Mulliken charges =   0.00000   1.00000
 Mulliken charges and spin densities with hydrogens summed into heavy atoms:
               1          2
     3  F    0.000000   1.000000
 APT charges:
               1
     1  H    0.401605
     2  H   -0.001953
     3  F   -0.399652
 Sum of APT charges =   0.00000
 APT charges with hydrogens summed into heavy atoms:
               1
     3  F    0.000000
 Electronic spatial extent (au):  <R**2>=             68.0438
 Charge=              0.0000 electrons
 Dipole moment (field-independent basis, Debye):
    X=             -1.8501    Y=             -0.0000    Z=             -0.0000  Tot=              1.8501
 Quadrupole moment (field-independent basis, Debye-Ang):
   XX=             -7.6388   YY=             -6.8178   ZZ=             -6.8178
   XY=             -0.0000   XZ=              0.0000   YZ=             -0.0000
 Traceless Quadrupole moment (field-independent basis, Debye-Ang):
   XX=             -0.5473   YY=              0.2737   ZZ=              0.2737
   XY=             -0.0000   XZ=              0.0000   YZ=             -0.0000
 Octapole moment (field-independent basis, Debye-Ang**2):
  XXX=             -2.2744  YYY=             -0.0000  ZZZ=             -0.0000  XYY=             -0.4059
  XXY=             -0.0000  XXZ=              0.0000  XZZ=             -0.4059  YZZ=             -0.0000
  YYZ=             -0.0000  XYZ=             -0.0000
 Hexadecapole moment (field-independent basis, Debye-Ang**3):
 XXXX=            -90.0915 YYYY=             -4.8493 ZZZZ=             -4.8493 XXXY=             -0.0000
 XXXZ=              0.0000 YYYX=             -0.0000 YYYZ=             -0.0000 ZZZX=              0.0000
 ZZZY=             -0.0000 XXYY=            -16.4219 XXZZ=            -16.4219 YYZZ=             -1.6164
 XXYZ=             -0.0000 YYXZ=              0.0000 ZZXY=             -0.0000
 N-N= 7.075916846210D+00 E-N=-2.558547642134D+02  KE= 1.010104394944D+02
  Exact polarizability:       6.073      -0.000       2.450       0.000       0.000       2.450
 Approx polarizability:       6.659       0.000       2.432      -0.000       0.000       2.432
                          Isotropic Fermi Contact Couplings
        Atom                 a.u.       MegaHertz       Gauss      10(-4) cm-1
     1  H(1)              -0.00012      -0.55800      -0.19911      -0.18613
     2  H(1)               0.29629    1324.37127     472.56860     441.76270
     3  F(19)             -0.00103      -4.34329      -1.54979      -1.44876
 --------------------------------------------------------
       Center         ----  Spin Dipole Couplings  ----
                      3XX-RR        3YY-RR        3ZZ-RR
 --------------------------------------------------------
     1   Atom        0.014454     -0.007227     -0.007227
     2   Atom        0.000316     -0.000158     -0.000158
     3   Atom        0.017863     -0.008931     -0.008931
 --------------------------------------------------------
                        XY            XZ            YZ
 --------------------------------------------------------
     1   Atom        0.000000      0.000000      0.000000
     2   Atom        0.000000      0.000000      0.000000
     3   Atom        0.000000      0.000000      0.000000
 --------------------------------------------------------


 ---------------------------------------------------------------------------------
              Anisotropic Spin Dipole Couplings in Principal Axis System
 ---------------------------------------------------------------------------------

       Atom             a.u.   MegaHertz   Gauss  10(-4) cm-1        Axes

              Baa    -0.0072    -3.856    -1.376    -1.286 -0.0000  1.0000  0.0000
     1 H(1)   Bbb    -0.0072    -3.856    -1.376    -1.286  0.0000  0.0000  1.0000
              Bcc     0.0145     7.712     2.752     2.572  1.0000  0.0000  0.0000
 
              Baa    -0.0002    -0.084    -0.030    -0.028 -0.0000  1.0000  0.0000
     2 H(1)   Bbb    -0.0002    -0.084    -0.030    -0.028  0.0000  0.0000  1.0000
              Bcc     0.0003     0.168     0.060     0.056  1.0000  0.0000  0.0000
 
              Baa    -0.0089    -4.486    -1.601    -1.496 -0.0000  1.0000  0.0000
     3 F(19)  Bbb    -0.0089    -4.486    -1.601    -1.496  0.0000  0.0000  1.0000
              Bcc     0.0179     8.971     3.201     2.992  1.0000  0.0000  0.0000
 

 ---------------------------------------------------------------------------------

 Calling FoFJK, ICntrl=    100127 FMM=F ISym2X=0 I1Cent= 0 IOpClX= 1 NMat=1 NMatS=1 NMatT=0.
 Full mass-weighted force constant matrix:
 Low frequencies ----1352.9835-1352.9835  -49.0499   -0.0020   -0.0013   -0.0013
 Low frequencies ---   25.3718   25.3718 5309.8112
 ******    3 imaginary frequencies (negative Signs) ****** 
 Diagonal vibrational polarizability:
        2.5876163       2.8101573       2.8101573
 Harmonic frequencies (cm**-1), IR intensities (KM/Mole), Raman scattering
 activities (A**4/AMU), depolarization ratios for plane and unpolarized
 incident light, reduced masses (AMU), force constants (mDyne/A),
 and normal coordinates:
                      1                      2                      3
                      A                      A                      A
 Frequencies --  -1317.9715             -1317.9715               -49.0499
 Red. masses --      1.0363                 1.0363                 1.0532
 Frc consts  --      1.0606                 1.0606                 0.0015
 IR Inten    --    181.3884               181.3884                 0.2215
  Atom  AN      X      Y      Z        X      Y      Z        X      Y      Z
     1   1     0.00   0.97   0.01    -0.00  -0.01   0.97    -0.05  -0.00   0.00
     2   1     0.00  -0.22  -0.00    -0.00   0.00  -0.22     1.00   0.00  -0.00
     3   9    -0.00  -0.04  -0.00     0.00   0.00  -0.04    -0.05   0.00  -0.00
                      4
                      A
 Frequencies --   5309.8112
 Red. masses --      1.0583
 Frc consts  --     17.5806
 IR Inten    --    115.0424
  Atom  AN      X      Y      Z
     1   1     1.00  -0.00   0.00
     2   1     0.00   0.00  -0.00
     3   9    -0.05   0.00  -0.00

 -------------------
 - Thermochemistry -
 -------------------
 Temperature   298.150 Kelvin.  Pressure   1.00000 Atm.
 Atom     1 has atomic number  1 and mass   1.00783
 Atom     2 has atomic number  1 and mass   1.00783
 Atom     3 has atomic number  9 and mass  18.99840
 Molecular mass:    21.01405 amu.
 Principal axes and moments of inertia in atomic units:
                           1         2         3
     Eigenvalues --     0.00000  48.29732  48.29732
           X            1.00000  -0.00000   0.00000
           Y            0.00000   1.00000   0.00000
           Z            0.00000   0.00000   1.00000
 This molecule is a prolate symmetric top.
 Rotational symmetry number  1.
 Rotational temperature (Kelvin)      1.79335
 Rotational constant (GHZ):          37.367319
    3 imaginary frequencies ignored.
 Zero-point vibrational energy      31759.7 (Joules/Mol)
                                    7.59076 (Kcal/Mol)
 Vibrational temperatures:   7639.63
          (Kelvin)
 
 Zero-point correction=                           0.012097 (Hartree/Particle)
 Thermal correction to Energy=                    0.014457
 Thermal correction to Enthalpy=                  0.015401
 Thermal correction to Gibbs Free Energy=        -0.007687
 Sum of electronic and zero-point Energies=           -100.953547
 Sum of electronic and thermal Energies=              -100.951186
 Sum of electronic and thermal Enthalpies=            -100.950242
 Sum of electronic and thermal Free Energies=         -100.973331
 
                     E (Thermal)             CV                S
                      KCal/Mol        Cal/Mol-Kelvin    Cal/Mol-Kelvin
 Total                    9.072              4.968             48.594
 Electronic               0.000              0.000              1.377
 Translational            0.889              2.981             35.068
 Rotational               0.592              1.987             12.149
 Vibrational              7.591              0.000              0.000
                       Q            Log10(Q)             Ln(Q)
 Total Bot       0.343523D+04          3.535956          8.141838
 Total V=0       0.125898D+10          9.100019         20.953567
 Vib (Bot)       0.272858D-05         -5.564063        -12.811729
 Vib (V=0)       0.100000D+01          0.000000          0.000000
 Electronic      0.200000D+01          0.301030          0.693147
 Translational   0.378633D+07          6.578219         15.146908
 Rotational      0.166253D+03          2.220770          5.113512
 -------------------------------------------------------------------
 Center     Atomic                   Forces (Hartrees/Bohr)
 Number     Number              X              Y              Z
 -------------------------------------------------------------------
      1        1          -0.106444750   -0.000000000   -0.000000000
      2        1           0.000175447    0.000000000   -0.000000000
      3        9           0.106269304    0.000000000    0.000000000
 -------------------------------------------------------------------
 Cartesian Forces:  Max     0.106444750 RMS     0.050137234

 GradGradGradGradGradGradGradGradGradGradGradGradGradGradGradGradGradGrad
 Berny optimization.
 Search for a local minimum.
 Step number   1 out of a maximum of    2
 All quantities printed in internal units (Hartrees-Bohrs-Radians)
 Second derivative matrix not updated -- analytic derivatives used.
 The second derivative matrix:
                          X1        Y1        Z1        X2        Y2
           X1           1.02111
           Y1          -0.00000  -0.06630
           Z1           0.00000  -0.00000  -0.06630
           X2           0.00033  -0.00000   0.00000  -0.00009
           Y2          -0.00000   0.00001  -0.00000   0.00000   0.00002
           Z2          -0.00000  -0.00000   0.00001  -0.00000   0.00000
           X3          -1.02144   0.00000  -0.00000  -0.00025   0.00000
           Y3           0.00000   0.06629   0.00000   0.00000  -0.00003
           Z3           0.00000   0.00000   0.06629   0.00000  -0.00000
                          Z2        X3        Y3        Z3
           Z2           0.00002
           X3           0.00000   1.02169
           Y3          -0.00000  -0.00000  -0.06626
           Z3          -0.00003  -0.00000  -0.00000  -0.06626
 ITU=  0
     Eigenvalues ---   -0.09361  -0.09361  -0.00012   1.67131
 Eigenvalue     1 is  -9.36D-02 should be greater than     0.000000 Eigenvector:
                          Y1        Y3        Y2        Z1        Z3
   1                    0.94540  -0.24274  -0.21719   0.01079  -0.00277
                          Z2        X1        X2        X3
   1                   -0.00248   0.00000   0.00000  -0.00000
 Eigenvalue     2 is  -9.36D-02 should be greater than     0.000000 Eigenvector:
                          Z1        Z3        Z2        Y1        Y3
   1                    0.94540  -0.24274  -0.21719  -0.01079   0.00277
                          Y2        X1        X2        X3
   1                    0.00248  -0.00000  -0.00000   0.00000
 Eigenvalue     3 is  -1.21D-04 should be greater than     0.000000 Eigenvector:
                          X2        X1        X3        Z1        Y1
   1                    0.94277  -0.23595  -0.23561   0.00000  -0.00000
                          Z3        Z2        Y3        Y2
   1                   -0.00000  -0.00000   0.00000   0.00000
 Quadratic step=2.010D+00 exceeds max=3.000D-01 adjusted using Lamda=-7.207D-04.
 Angle between NR and scaled steps=  13.39 degrees.
 Angle between quadratic step and forces=  75.73 degrees.
 Linear search not attempted -- first point.
 B after Tr=    -0.026159    0.000000   -0.000000
         Rot=    0.967432    0.253129   -0.000000   -0.000000 Ang=  29.33 deg.
 Variable       Old X    -DE/DX   Delta X   Delta X   Delta X     New X
                                 (Linear)    (Quad)   (Total)
    X1        0.00000  -0.10644   0.00000  -0.14345  -0.16961  -0.16961
    Y1        0.00000  -0.00000   0.00000  -0.00000  -0.00000  -0.00000
    Z1        0.00000  -0.00000   0.00000  -0.00000   0.00000   0.00000
    X2       -5.38572   0.00018   0.00000   0.26116   0.23500  -5.15072
    Y2        0.00000   0.00000   0.00000   0.00000   0.00000   0.00000
    Z2        0.00000  -0.00000   0.00000   0.00000  -0.00000  -0.00000
    X3        1.60627   0.10627   0.00000  -0.03924  -0.06540   1.54087
    Y3        0.00000   0.00000   0.00000   0.00000   0.00000   0.00000
    Z3        0.00000   0.00000   0.00000   0.00000  -0.00000  -0.00000
         Item               Value     Threshold  Converged?
 Maximum Force            0.106445     0.000450     NO 
 RMS     Force            0.050137     0.000300     NO 
 Maximum Displacement     0.235004     0.001800     NO 
 RMS     Displacement     0.099034     0.001200     NO 
 Predicted change in Energy=-5.615222D-03
 GradGradGradGradGradGradGradGradGradGradGradGradGradGradGradGradGradGrad


 ----------------------------------------------------------------------

 Electric dipole moment (input orientation):
 (Debye = 10**-18 statcoulomb cm , SI units = C m)
                  (au)            (Debye)         (10**-30 SI)
   Tot        0.727880D+00      0.185009D+01      0.617122D+01
   x         -0.727880D+00     -0.185009D+01     -0.617122D+01
   y          0.000000D+00      0.000000D+00      0.000000D+00
   z          0.000000D+00      0.000000D+00      0.000000D+00

 Dipole polarizability, Alpha (input orientation).
 (esu units = cm**3 , SI units = C**2 m**2 J**-1)
 Alpha(0;0):
               (au)            (10**-24 esu)      (10**-40 SI)
   iso        0.365774D+01      0.542022D+00      0.603081D+00
   aniso      0.362236D+01      0.536778D+00      0.597246D+00
   xx         0.607265D+01      0.899874D+00      0.100124D+01
   yx         0.000000D+00      0.000000D+00      0.000000D+00
   yy         0.245029D+01      0.363096D+00      0.403999D+00
   zx         0.000000D+00      0.000000D+00      0.000000D+00
   zy         0.000000D+00      0.000000D+00      0.000000D+00
   zz         0.245029D+01      0.363096D+00      0.403999D+00

 ----------------------------------------------------------------------

 Dipole orientation:
     1          0.00000000          0.00000000         -0.00000000
     1          0.00000000          0.00000000          5.38571946
     9         -0.00000000         -0.00000000         -1.60626721

 Electric dipole moment (dipole orientation):
 (Debye = 10**-18 statcoulomb cm , SI units = C m)
                  (au)            (Debye)         (10**-30 SI)
   Tot        0.727880D+00      0.185009D+01      0.617122D+01
   x          0.000000D+00      0.000000D+00      0.000000D+00
   y          0.000000D+00      0.000000D+00      0.000000D+00
   z          0.727880D+00      0.185009D+01      0.617122D+01

 Dipole polarizability, Alpha (dipole orientation).
 (esu units = cm**3 , SI units = C**2 m**2 J**-1)
 Alpha(0;0):
               (au)            (10**-24 esu)      (10**-40 SI)
   iso        0.365774D+01      0.542022D+00      0.603081D+00
   aniso      0.362236D+01      0.536778D+00      0.597246D+00
   xx         0.245029D+01      0.363096D+00      0.403999D+00
   yx         0.000000D+00      0.000000D+00      0.000000D+00
   yy         0.245029D+01      0.363096D+00      0.403999D+00
   zx         0.000000D+00      0.000000D+00      0.000000D+00
   zy         0.000000D+00      0.000000D+00      0.000000D+00
   zz         0.607265D+01      0.899874D+00      0.100124D+01

 ----------------------------------------------------------------------
 Unable to Open any file for archive entry.
 1\1\GINC-DESKTOP-B3RIHJD\Freq\UB3LYP\6-311G(d,p)\F1H2(2)\GARYX\22-Aug-
 2025\0\\# sp b3lyp/6-311g** Force nosymm scf=(qc)\\Title Card Required
 \\0,2\H,0.,0.,0.\H,-2.85,0.,0.\F,0.85,0.,0.\\Version=ES64L-G16RevC.01\
 HF=-100.9656434\S2=0.750005\S2-1=0.\S2A=0.75\RMSD=3.989e-12\RMSF=5.014
 e-02\ZeroPoint=0.0120966\Thermal=0.0144571\ETot=-100.9511863\HTot=-100
 .9502421\GTot=-100.9733308\Dipole=-0.72788,0.,0.\DipoleDeriv=0.336807,
 0.,0.,0.,0.4340034,0.,0.,0.,0.4340034,-0.0146571,0.,0.,0.,0.0043991,0.
 ,0.,0.,0.0043991,-0.3221499,0.,0.,0.,-0.4384024,0.,0.,0.,-0.4384024\Po
 lar=6.0726482,0.,2.450293,0.,0.,2.450293\Quadrupole=-0.4069109,0.20345
 54,0.2034554,0.,0.,0.\PG=C*V [C*(H1H1F1)]\NImag=3\\1.02110961,0.,-0.06
 630083,0.,0.,-0.06630083,0.00033407,0.,0.,-0.00008725,0.,0.00000776,0.
 ,0.,0.00002337,0.,0.,0.00000776,0.,0.,0.00002337,-1.02144368,0.,0.,-0.
 00024682,0.,0.,1.02169050,0.,0.06629307,0.,0.,-0.00003114,0.,0.,-0.066
 26193,0.,0.,0.06629307,0.,0.,-0.00003114,0.,0.,-0.06626193\\0.10644475
 ,0.,0.,-0.00017545,0.,0.,-0.10626930,0.,0.\\\@
 The archive entry for this job was punched.


 IF YOU GIVE EVERYONE A PIECE OF YOUR MIND,
 PRETTY SOON IT WILL BE ALL GONE.
 Job cpu time:       0 days  0 hours  0 minutes 13.0 seconds.
 Elapsed time:       0 days  0 hours  0 minutes  1.8 seconds.
 File lengths (MBytes):  RWF=      6 Int=      0 D2E=      0 Chk=      1 Scr=      1
 Normal termination of Gaussian 16 at Fri Aug 22 15:54:01 2025.
