 Entering Gaussian System, Link 0=g16
 Initial command:
 /home/garyx/gaussian/g16/l1.exe "/tmp/gaussian_scratch/Gau-1003768.inp" -scrdir="/tmp/gaussian_scratch/"
 Entering Link 1 = /home/garyx/gaussian/g16/l1.exe PID=   1003770.
  
 Copyright (c) 1988-2019, Gaussian, Inc.  All Rights Reserved.
  
 This is part of the Gaussian(R) 16 program.  It is based on
 the Gaussian(R) 09 system (copyright 2009, Gaussian, Inc.),
 the Gaussian(R) 03 system (copyright 2003, Gaussian, Inc.),
 the Gaussian(R) 98 system (copyright 1998, Gaussian, Inc.),
 the Gaussian(R) 94 system (copyright 1995, Gaussian, Inc.),
 the Gaussian 92(TM) system (copyright 1992, Gaussian, Inc.),
 the Gaussian 90(TM) system (copyright 1990, Gaussian, Inc.),
 the Gaussian 88(TM) system (copyright 1988, Gaussian, Inc.),
 the Gaussian 86(TM) system (copyright 1986, Carnegie Mellon
 University), and the Gaussian 82(TM) system (copyright 1983,
 Carnegie Mellon University). Gaussian is a federally registered
 trademark of Gaussian, Inc.
  
 This software contains proprietary and confidential information,
 including trade secrets, belonging to Gaussian, Inc.
  
 This software is provided under written license and may be
 used, copied, transmitted, or stored only in accord with that
 written license.
  
 The following legend is applicable only to US Government
 contracts under FAR:
  
                    RESTRICTED RIGHTS LEGEND
  
 Use, reproduction and disclosure by the US Government is
 subject to restrictions as set forth in subparagraphs (a)
 and (c) of the Commercial Computer Software - Restricted
 Rights clause in FAR 52.227-19.
  
 Gaussian, Inc.
 340 Quinnipiac St., Bldg. 40, Wallingford CT 06492
  
  
 ---------------------------------------------------------------
 Warning -- This program may not be used in any manner that
 competes with the business of Gaussian, Inc. or will provide
 assistance to any competitor of Gaussian, Inc.  The licensee
 of this program is prohibited from giving any competitor of
 Gaussian, Inc. access to this program.  By using this program,
 the user acknowledges that Gaussian, Inc. is engaged in the
 business of creating and licensing software in the field of
 computational chemistry and represents and warrants to the
 licensee that it is not a competitor of Gaussian, Inc. and that
 it will not use this program in any manner prohibited above.
 ---------------------------------------------------------------
  

 Cite this work as:
 Gaussian 16, Revision C.01,
 M. J. Frisch, G. W. Trucks, H. B. Schlegel, G. E. Scuseria, 
 M. A. Robb, J. R. Cheeseman, G. Scalmani, V. Barone, 
 G. A. Petersson, H. Nakatsuji, X. Li, M. Caricato, A. V. Marenich, 
 J. Bloino, B. G. Janesko, R. Gomperts, B. Mennucci, H. P. Hratchian, 
 J. V. Ortiz, A. F. Izmaylov, J. L. Sonnenberg, D. Williams-Young, 
 F. Ding, F. Lipparini, F. Egidi, J. Goings, B. Peng, A. Petrone, 
 T. Henderson, D. Ranasinghe, V. G. Zakrzewski, J. Gao, N. Rega, 
 G. Zheng, W. Liang, M. Hada, M. Ehara, K. Toyota, R. Fukuda, 
 J. Hasegawa, M. Ishida, T. Nakajima, Y. Honda, O. Kitao, H. Nakai, 
 T. Vreven, K. Throssell, J. A. Montgomery, Jr., J. E. Peralta, 
 F. Ogliaro, M. J. Bearpark, J. J. Heyd, E. N. Brothers, K. N. Kudin, 
 V. N. Staroverov, T. A. Keith, R. Kobayashi, J. Normand, 
 K. Raghavachari, A. P. Rendell, J. C. Burant, S. S. Iyengar, 
 J. Tomasi, M. Cossi, J. M. Millam, M. Klene, C. Adamo, R. Cammi, 
 J. W. Ochterski, R. L. Martin, K. Morokuma, O. Farkas, 
 J. B. Foresman, and D. J. Fox, Gaussian, Inc., Wallingford CT, 2019.
 
 ******************************************
 Gaussian 16:  ES64L-G16RevC.01  3-Jul-2019
                22-Aug-2025 
 ******************************************
 %mem=10GB
 %nprocs=8
 Will use up to    8 processors via shared memory.
 -----------------------------------------
 # sp b3lyp/6-311g** Force nosymm scf=(qc)
 -----------------------------------------
 1/10=4,30=1,38=1/1,3;
 2/12=2,15=1,17=6,18=5,40=1/2;
 3/5=4,6=6,7=101,11=2,25=1,30=1,71=2,74=-5,140=1/1,2,3;
 4//1;
 5/5=2,8=3,38=5,98=1/8;
 8/6=4,10=90,11=11/1;
 11/6=1,8=1,9=11,15=111,16=1,31=1/1,2,10;
 10/6=1,31=1/2;
 6/7=2,8=2,9=2,10=2,28=1/1;
 7/8=1,10=1,25=1,30=1/1,2,3,16;
 1/10=4,30=1/3;
 99//99;
 -------------------
 Title Card Required
 -------------------
 Symbolic Z-matrix:
 Charge =  0 Multiplicity = 2
 H                     0.        0.        0. 
 H                    -3.85      0.        0. 
 F                     3.55      0.        0. 
 

 GradGradGradGradGradGradGradGradGradGradGradGradGradGradGradGradGradGrad
 Berny optimization.
 Initialization pass.
 Trust Radius=3.00D-01 FncErr=1.00D-07 GrdErr=1.00D-07 EigMax=2.50D+02 EigMin=1.00D-04
 Number of steps in this run=      2 maximum allowed number of steps=      2.
 GradGradGradGradGradGradGradGradGradGradGradGradGradGradGradGradGradGrad

                          Input orientation:                          
 ---------------------------------------------------------------------
 Center     Atomic      Atomic             Coordinates (Angstroms)
 Number     Number       Type             X           Y           Z
 ---------------------------------------------------------------------
      1          1           0        0.000000    0.000000    0.000000
      2          1           0       -3.850000    0.000000    0.000000
      3          9           0        3.550000    0.000000    0.000000
 ---------------------------------------------------------------------
                    Distance matrix (angstroms):
                    1          2          3
     1  H    0.000000
     2  H    3.850000   0.000000
     3  F    3.550000   7.400000   0.000000
 Symmetry turned off by external request.
 Stoichiometry    FH2(2)
 Framework group  C*V[C*(HHF)]
 Deg. of freedom     2
 Full point group                 C*V     NOp   4
 Rotational constants (GHZ):           0.0000000           8.1389158           8.1389158
 Standard basis: 6-311G(d,p) (5D, 7F)
    30 basis functions,    48 primitive gaussians,    31 cartesian basis functions
     6 alpha electrons        5 beta electrons
       nuclear repulsion energy         2.1226185591 Hartrees.
 NAtoms=    3 NActive=    3 NUniq=    3 SFac= 1.00D+00 NAtFMM=   60 NAOKFM=F Big=F
 Integral buffers will be    131072 words long.
 Raffenetti 2 integral format.
 Two-electron integral symmetry is turned off.
 One-electron integrals computed using PRISM.
 NBasis=    30 RedAO= T EigKep=  8.91D-02  NBF=    30
 NBsUse=    30 1.00D-06 EigRej= -1.00D+00 NBFU=    30
 ExpMin= 1.03D-01 ExpMax= 1.14D+04 ExpMxC= 1.72D+03 IAcc=3 IRadAn=         5 AccDes= 0.00D+00
 Harris functional with IExCor=  402 and IRadAn=       5 diagonalized for initial guess.
 HarFok:  IExCor=  402 AccDes= 0.00D+00 IRadAn=         5 IDoV= 1 UseB2=F ITyADJ=14
 ICtDFT=  3500011 ScaDFX=  1.000000  1.000000  1.000000  1.000000
 FoFCou: FMM=F IPFlag=           0 FMFlag=      100000 FMFlg1=           0
         NFxFlg=           0 DoJE=T BraDBF=F KetDBF=T FulRan=T
         wScrn=  0.000000 ICntrl=       500 IOpCl=  0 I1Cent=   200000004 NGrid=           0
         NMat0=    1 NMatS0=      1 NMatT0=    0 NMatD0=    1 NMtDS0=    0 NMtDT0=    0
 Symmetry not used in FoFCou.
 Initial guess <Sx>= 0.0000 <Sy>= 0.0000 <Sz>= 0.5000 <S**2>= 0.7500 S= 0.5000
 Keep R1 and R2 ints in memory in canonical form, NReq=7127049.
 Gradient too large for Newton-Raphson -- use scaled steepest descent instead.
  Beta Gap=    -0.525 HL deriv= 4.56D-15 Rot set to   3.56D-01
     Minimum is close to point  3 DX=  3.72D-02 DF= -1.00D-03 DXR=  8.51D-02 DFR=  7.72D-03 which will be used.
 Gradient too large for Newton-Raphson -- use scaled steepest descent instead.
     Accept linear search using points  4 and  5.
 Gradient too large for Newton-Raphson -- use scaled steepest descent instead.
 Gradient too large for Newton-Raphson -- use scaled steepest descent instead.
 Gradient too large for Newton-Raphson -- use scaled steepest descent instead.
 Gradient too large for Newton-Raphson -- use scaled steepest descent instead.
     Minimum is close to point  3 DX=  1.45D-02 DF= -2.64D-05 DXR=  2.81D-02 DFR=  7.93D-04 which will be used.
 Gradient too large for Newton-Raphson -- use scaled steepest descent instead.
     Accept linear search using points  2 and  3.
 Gradient too large for Newton-Raphson -- use scaled steepest descent instead.
 Gradient too large for Newton-Raphson -- use scaled steepest descent instead.
 Gradient too large for Newton-Raphson -- use scaled steepest descent instead.
 Gradient too large for Newton-Raphson -- use scaled steepest descent instead.
     Accept linear search using points  1 and  2.
 Gradient too large for Newton-Raphson -- use scaled steepest descent instead.
     Accept linear search using points  3 and  4.
 Gradient too large for Newton-Raphson -- use scaled steepest descent instead.
     Accept linear search using points  2 and  3.
 Gradient too large for Newton-Raphson -- use scaled steepest descent instead.
     Accept linear search using points  1 and  2.
 LinEq1:  Iter=  0 NonCon=     1 RMS=1.57D-03 Max=2.49D-02 NDo=     1
 AX will form     1 AO Fock derivatives at one time.
 LinEq1:  Iter=  1 NonCon=     1 RMS=3.75D-04 Max=2.46D-03 NDo=     1
 LinEq1:  Iter=  2 NonCon=     1 RMS=1.07D-04 Max=9.98D-04 NDo=     1
 LinEq1:  Iter=  3 NonCon=     1 RMS=4.69D-05 Max=6.18D-04 NDo=     1
 LinEq1:  Iter=  4 NonCon=     1 RMS=6.61D-06 Max=7.30D-05 NDo=     1
 LinEq1:  Iter=  5 NonCon=     1 RMS=3.47D-07 Max=3.56D-06 NDo=     1
 LinEq1:  Iter=  6 NonCon=     1 RMS=8.70D-08 Max=7.28D-07 NDo=     1
 LinEq1:  Iter=  7 NonCon=     1 RMS=1.25D-08 Max=9.58D-08 NDo=     1
 LinEq1:  Iter=  8 NonCon=     0 RMS=1.22D-09 Max=8.85D-09 NDo=     1
 Linear equations converged to 1.640D-09 1.640D-08 after     8 iterations.
 LinEq1:  Iter=  0 NonCon=     1 RMS=1.25D-03 Max=1.99D-02 NDo=     1
 LinEq1:  Iter=  1 NonCon=     1 RMS=2.84D-04 Max=1.87D-03 NDo=     1
 LinEq1:  Iter=  2 NonCon=     1 RMS=7.57D-05 Max=8.21D-04 NDo=     1
 LinEq1:  Iter=  3 NonCon=     1 RMS=2.92D-05 Max=4.15D-04 NDo=     1
 LinEq1:  Iter=  4 NonCon=     1 RMS=4.50D-06 Max=5.15D-05 NDo=     1
 LinEq1:  Iter=  5 NonCon=     1 RMS=1.75D-07 Max=1.60D-06 NDo=     1
 LinEq1:  Iter=  6 NonCon=     1 RMS=4.58D-08 Max=4.53D-07 NDo=     1
 LinEq1:  Iter=  7 NonCon=     1 RMS=6.06D-09 Max=4.55D-08 NDo=     1
 LinEq1:  Iter=  8 NonCon=     0 RMS=6.09D-10 Max=3.08D-09 NDo=     1
 Linear equations converged to 1.640D-09 1.640D-08 after     8 iterations.
 LinEq1:  Iter=  0 NonCon=     1 RMS=8.62D-04 Max=1.38D-02 NDo=     1
 LinEq1:  Iter=  1 NonCon=     1 RMS=1.70D-04 Max=1.22D-03 NDo=     1
 LinEq1:  Iter=  2 NonCon=     1 RMS=4.94D-05 Max=5.66D-04 NDo=     1
 LinEq1:  Iter=  3 NonCon=     1 RMS=9.11D-06 Max=1.38D-04 NDo=     1
 LinEq1:  Iter=  4 NonCon=     1 RMS=2.71D-06 Max=2.21D-05 NDo=     1
 LinEq1:  Iter=  5 NonCon=     1 RMS=1.17D-07 Max=8.24D-07 NDo=     1
 LinEq1:  Iter=  6 NonCon=     1 RMS=2.63D-08 Max=3.20D-07 NDo=     1
 LinEq1:  Iter=  7 NonCon=     1 RMS=4.39D-09 Max=2.45D-08 NDo=     1
 LinEq1:  Iter=  8 NonCon=     0 RMS=3.75D-10 Max=2.37D-09 NDo=     1
 Linear equations converged to 1.640D-09 1.640D-08 after     8 iterations.
     Minimum is close to point  2 DX=  4.42D-02 DF= -5.64D-08 DXR=  4.24D-02 DFR=  1.80D-03 which will be used.
 LinEq1:  Iter=  0 NonCon=     1 RMS=6.20D-05 Max=6.22D-04 NDo=     1
 LinEq1:  Iter=  1 NonCon=     1 RMS=3.59D-05 Max=2.92D-04 NDo=     1
 LinEq1:  Iter=  2 NonCon=     1 RMS=2.01D-05 Max=2.55D-04 NDo=     1
 LinEq1:  Iter=  3 NonCon=     1 RMS=4.86D-06 Max=5.26D-05 NDo=     1
 LinEq1:  Iter=  4 NonCon=     1 RMS=9.13D-07 Max=7.48D-06 NDo=     1
 LinEq1:  Iter=  5 NonCon=     1 RMS=5.47D-08 Max=4.69D-07 NDo=     1
 LinEq1:  Iter=  6 NonCon=     1 RMS=7.24D-09 Max=3.77D-08 NDo=     1
 LinEq1:  Iter=  7 NonCon=     0 RMS=1.25D-09 Max=7.78D-09 NDo=     1
 Linear equations converged to 1.640D-09 1.640D-08 after     7 iterations.
 Incorrect curvature in search direction -- initial direction reversed.
 LinEq1:  Iter=  0 NonCon=     1 RMS=1.14D-04 Max=1.15D-03 NDo=     1
 LinEq1:  Iter=  1 NonCon=     1 RMS=6.70D-05 Max=5.60D-04 NDo=     1
 LinEq1:  Iter=  2 NonCon=     1 RMS=4.03D-05 Max=5.23D-04 NDo=     1
 LinEq1:  Iter=  3 NonCon=     1 RMS=9.80D-06 Max=1.06D-04 NDo=     1
 LinEq1:  Iter=  4 NonCon=     1 RMS=1.77D-06 Max=1.35D-05 NDo=     1
 LinEq1:  Iter=  5 NonCon=     1 RMS=1.15D-07 Max=9.33D-07 NDo=     1
 LinEq1:  Iter=  6 NonCon=     1 RMS=1.95D-08 Max=1.11D-07 NDo=     1
 LinEq1:  Iter=  7 NonCon=     1 RMS=3.36D-09 Max=2.37D-08 NDo=     1
 LinEq1:  Iter=  8 NonCon=     0 RMS=6.71D-10 Max=6.10D-09 NDo=     1
 Linear equations converged to 1.640D-09 1.640D-08 after     8 iterations.
 Incorrect curvature in search direction -- initial direction reversed.
     Minimum is close to point  4 DX= -4.50D-03 DF= -3.12D-08 DXR=  2.30D-02 DFR=  1.82D-03 which will be used.
 Gradient too large for Newton-Raphson -- use scaled steepest descent instead.
     Accept linear search using points  1 and  2.
     Minimum is close to point  2 DX= -8.22D-02 DF= -2.47D-07 DXR=  8.08D-02 DFR=  7.64D-03 which will be used.
 LinEq1:  Iter=  0 NonCon=     1 RMS=1.26D-04 Max=1.18D-03 NDo=     1
 LinEq1:  Iter=  1 NonCon=     1 RMS=8.42D-05 Max=1.17D-03 NDo=     1
 LinEq1:  Iter=  2 NonCon=     1 RMS=1.72D-05 Max=1.41D-04 NDo=     1
 LinEq1:  Iter=  3 NonCon=     1 RMS=3.17D-06 Max=3.13D-05 NDo=     1
 LinEq1:  Iter=  4 NonCon=     1 RMS=3.66D-07 Max=3.27D-06 NDo=     1
 LinEq1:  Iter=  5 NonCon=     1 RMS=4.15D-08 Max=3.05D-07 NDo=     1
 LinEq1:  Iter=  6 NonCon=     1 RMS=9.13D-09 Max=6.92D-08 NDo=     1
 LinEq1:  Iter=  7 NonCon=     1 RMS=1.68D-09 Max=1.26D-08 NDo=     1
 LinEq1:  Iter=  8 NonCon=     0 RMS=7.17D-10 Max=1.01D-08 NDo=     1
 Linear equations converged to 1.640D-09 1.640D-08 after     8 iterations.
 Incorrect curvature in search direction -- initial direction reversed.
 LinEq1:  Iter=  0 NonCon=     1 RMS=1.64D-04 Max=1.59D-03 NDo=     1
 LinEq1:  Iter=  1 NonCon=     1 RMS=1.37D-04 Max=1.40D-03 NDo=     1
 LinEq1:  Iter=  2 NonCon=     1 RMS=7.49D-05 Max=8.83D-04 NDo=     1
 LinEq1:  Iter=  3 NonCon=     1 RMS=6.24D-06 Max=5.37D-05 NDo=     1
 LinEq1:  Iter=  4 NonCon=     1 RMS=1.16D-06 Max=1.07D-05 NDo=     1
 LinEq1:  Iter=  5 NonCon=     1 RMS=1.01D-07 Max=8.10D-07 NDo=     1
 LinEq1:  Iter=  6 NonCon=     1 RMS=1.56D-08 Max=1.24D-07 NDo=     1
 LinEq1:  Iter=  7 NonCon=     1 RMS=3.47D-09 Max=2.56D-08 NDo=     1
 LinEq1:  Iter=  8 NonCon=     0 RMS=1.04D-09 Max=1.40D-08 NDo=     1
 Linear equations converged to 1.640D-09 1.640D-08 after     8 iterations.
 LinEq1:  Iter=  0 NonCon=     1 RMS=1.63D-04 Max=1.65D-03 NDo=     1
 LinEq1:  Iter=  1 NonCon=     1 RMS=1.43D-04 Max=1.55D-03 NDo=     1
 LinEq1:  Iter=  2 NonCon=     1 RMS=9.23D-05 Max=1.28D-03 NDo=     1
 LinEq1:  Iter=  3 NonCon=     1 RMS=8.68D-06 Max=7.14D-05 NDo=     1
 LinEq1:  Iter=  4 NonCon=     1 RMS=1.48D-06 Max=1.42D-05 NDo=     1
 LinEq1:  Iter=  5 NonCon=     1 RMS=1.24D-07 Max=1.03D-06 NDo=     1
 LinEq1:  Iter=  6 NonCon=     1 RMS=1.11D-08 Max=7.09D-08 NDo=     1
 LinEq1:  Iter=  7 NonCon=     1 RMS=2.13D-09 Max=1.48D-08 NDo=     1
 LinEq1:  Iter=  8 NonCon=     0 RMS=9.15D-10 Max=1.29D-08 NDo=     1
 Linear equations converged to 1.640D-09 1.640D-08 after     8 iterations.
     Accept linear search using points  1 and  2.
 Gradient too large for Newton-Raphson -- use scaled steepest descent instead.
     Minimum is close to point  2 DX=  7.07D-02 DF= -1.31D-07 DXR=  6.60D-02 DFR=  4.38D-03 which will be used.
 LinEq1:  Iter=  0 NonCon=     1 RMS=7.80D-05 Max=7.93D-04 NDo=     1
 LinEq1:  Iter=  1 NonCon=     1 RMS=7.28D-05 Max=8.74D-04 NDo=     1
 LinEq1:  Iter=  2 NonCon=     1 RMS=2.29D-05 Max=2.58D-04 NDo=     1
 LinEq1:  Iter=  3 NonCon=     1 RMS=1.11D-06 Max=1.17D-05 NDo=     1
 LinEq1:  Iter=  4 NonCon=     1 RMS=1.20D-07 Max=1.19D-06 NDo=     1
 LinEq1:  Iter=  5 NonCon=     1 RMS=1.33D-08 Max=1.06D-07 NDo=     1
 LinEq1:  Iter=  6 NonCon=     1 RMS=3.84D-09 Max=3.47D-08 NDo=     1
 LinEq1:  Iter=  7 NonCon=     0 RMS=6.28D-10 Max=5.83D-09 NDo=     1
 Linear equations converged to 1.640D-09 1.640D-08 after     7 iterations.
 LinEq1:  Iter=  0 NonCon=     1 RMS=8.02D-05 Max=6.56D-04 NDo=     1
 LinEq1:  Iter=  1 NonCon=     1 RMS=5.72D-05 Max=6.54D-04 NDo=     1
 LinEq1:  Iter=  2 NonCon=     1 RMS=4.03D-05 Max=3.91D-04 NDo=     1
 LinEq1:  Iter=  3 NonCon=     1 RMS=4.82D-06 Max=5.21D-05 NDo=     1
 LinEq1:  Iter=  4 NonCon=     1 RMS=4.77D-07 Max=3.80D-06 NDo=     1
 LinEq1:  Iter=  5 NonCon=     1 RMS=4.16D-08 Max=3.04D-07 NDo=     1
 LinEq1:  Iter=  6 NonCon=     1 RMS=3.32D-09 Max=3.09D-08 NDo=     1
 LinEq1:  Iter=  7 NonCon=     0 RMS=3.62D-10 Max=3.65D-09 NDo=     1
 Linear equations converged to 1.640D-09 1.640D-08 after     7 iterations.
     Accept linear search using points  1 and  2.
 LinEq1:  Iter=  0 NonCon=     1 RMS=1.08D-04 Max=8.97D-04 NDo=     1
 LinEq1:  Iter=  1 NonCon=     1 RMS=2.64D-05 Max=3.69D-04 NDo=     1
 LinEq1:  Iter=  2 NonCon=     1 RMS=9.64D-06 Max=9.37D-05 NDo=     1
 LinEq1:  Iter=  3 NonCon=     1 RMS=1.22D-05 Max=1.68D-04 NDo=     1
 LinEq1:  Iter=  4 NonCon=     1 RMS=1.11D-06 Max=7.40D-06 NDo=     1
 LinEq1:  Iter=  5 NonCon=     1 RMS=8.59D-08 Max=5.98D-07 NDo=     1
 LinEq1:  Iter=  6 NonCon=     1 RMS=1.22D-08 Max=1.38D-07 NDo=     1
 LinEq1:  Iter=  7 NonCon=     1 RMS=2.83D-09 Max=2.14D-08 NDo=     1
 LinEq1:  Iter=  8 NonCon=     0 RMS=2.67D-10 Max=2.31D-09 NDo=     1
 Linear equations converged to 1.640D-09 1.640D-08 after     8 iterations.
 LinEq1:  Iter=  0 NonCon=     1 RMS=5.39D-05 Max=5.03D-04 NDo=     1
 LinEq1:  Iter=  1 NonCon=     1 RMS=1.24D-05 Max=9.21D-05 NDo=     1
 LinEq1:  Iter=  2 NonCon=     1 RMS=1.04D-05 Max=9.24D-05 NDo=     1
 LinEq1:  Iter=  3 NonCon=     1 RMS=4.05D-06 Max=3.57D-05 NDo=     1
 LinEq1:  Iter=  4 NonCon=     1 RMS=4.27D-07 Max=3.56D-06 NDo=     1
 LinEq1:  Iter=  5 NonCon=     1 RMS=2.79D-08 Max=2.61D-07 NDo=     1
 LinEq1:  Iter=  6 NonCon=     1 RMS=3.62D-09 Max=4.20D-08 NDo=     1
 LinEq1:  Iter=  7 NonCon=     0 RMS=8.16D-10 Max=6.15D-09 NDo=     1
 Linear equations converged to 1.640D-09 1.640D-08 after     7 iterations.
 LinEq1:  Iter=  0 NonCon=     1 RMS=9.61D-06 Max=6.88D-05 NDo=     1
 LinEq1:  Iter=  1 NonCon=     1 RMS=1.40D-06 Max=1.76D-05 NDo=     1
 LinEq1:  Iter=  2 NonCon=     1 RMS=7.18D-07 Max=8.23D-06 NDo=     1
 LinEq1:  Iter=  3 NonCon=     1 RMS=3.99D-07 Max=3.42D-06 NDo=     1
 LinEq1:  Iter=  4 NonCon=     1 RMS=8.85D-08 Max=6.19D-07 NDo=     1
 LinEq1:  Iter=  5 NonCon=     1 RMS=1.79D-08 Max=2.08D-07 NDo=     1
 LinEq1:  Iter=  6 NonCon=     1 RMS=2.55D-09 Max=2.25D-08 NDo=     1
 LinEq1:  Iter=  7 NonCon=     0 RMS=2.17D-10 Max=1.45D-09 NDo=     1
 Linear equations converged to 1.640D-09 1.640D-08 after     7 iterations.
     Minimum is close to point  2 DX=  2.72D-02 DF= -5.38D-11 DXR=  2.65D-02 DFR=  7.03D-04 which will be used.
 LinEq1:  Iter=  0 NonCon=     1 RMS=1.59D-07 Max=1.57D-06 NDo=     1
 LinEq1:  Iter=  1 NonCon=     1 RMS=5.51D-08 Max=6.34D-07 NDo=     1
 LinEq1:  Iter=  2 NonCon=     1 RMS=5.41D-08 Max=5.23D-07 NDo=     1
 LinEq1:  Iter=  3 NonCon=     1 RMS=1.83D-08 Max=1.61D-07 NDo=     1
 LinEq1:  Iter=  4 NonCon=     1 RMS=3.04D-09 Max=1.68D-08 NDo=     1
 LinEq1:  Iter=  5 NonCon=     1 RMS=3.97D-10 Max=2.76D-09 NDo=     1
 LinEq1:  Iter=  6 NonCon=     0 RMS=8.47D-11 Max=8.50D-10 NDo=     1
 Linear equations converged to 8.543D-11 8.543D-10 after     6 iterations.
 LinEq1:  Iter=  0 NonCon=     1 RMS=3.42D-08 Max=3.42D-07 NDo=     1
 LinEq1:  Iter=  1 NonCon=     1 RMS=1.54D-08 Max=2.00D-07 NDo=     1
 LinEq1:  Iter=  2 NonCon=     1 RMS=4.42D-09 Max=3.79D-08 NDo=     1
 LinEq1:  Iter=  3 NonCon=     1 RMS=3.49D-09 Max=4.31D-08 NDo=     1
 LinEq1:  Iter=  4 NonCon=     1 RMS=1.25D-09 Max=7.61D-09 NDo=     1
 LinEq1:  Iter=  5 NonCon=     1 RMS=2.95D-10 Max=2.05D-09 NDo=     1
 LinEq1:  Iter=  6 NonCon=     1 RMS=2.92D-11 Max=2.03D-10 NDo=     1
 LinEq1:  Iter=  7 NonCon=     0 RMS=2.15D-12 Max=1.62D-11 NDo=     1
 Linear equations converged to 1.467D-11 1.467D-10 after     7 iterations.
 SCF Done:  E(UB3LYP) =  -100.758830783     a.u. after   32 cycles
            Convg  =    0.5705D-07                   198 Fock formations.
              S**2 =  1.7366                  -V/T =  2.0014
 <Sx>= 0.0000 <Sy>= 0.0000 <Sz>= 0.5000 <S**2>= 1.7366 S= 0.9095
 <L.S>=  0.00000000000    
 Annihilation of the first spin contaminant:
 S**2 before annihilation     1.7366,   after     0.7530
 DoSCS=F DFT=T ScalE2(SS,OS)=  1.000000  1.000000
 Range of M.O.s used for correlation:     1    30
 NBasis=    30 NAE=     6 NBE=     5 NFC=     0 NFV=     0
 NROrb=     30 NOA=     6 NOB=     5 NVA=    24 NVB=    25

 **** Warning!!: The smallest beta delta epsilon is  0.72349707D-01

 Symmetrizing basis deriv contribution to polar:
 IMax=3 JMax=2 DiffMx= 0.00D+00
 G2DrvN: will do     4 centers at a time, making    1 passes.
 Calling FoFCou, ICntrl=  3107 FMM=F I1Cent=   0 AccDes= 0.00D+00.
 End of G2Drv F.D. properties file   721 does not exist.
 End of G2Drv F.D. properties file   722 does not exist.
 End of G2Drv F.D. properties file   788 does not exist.
          IDoAtm=111
          Differentiating once with respect to electric field.
                with respect to dipole field.
          Differentiating once with respect to nuclear coordinates.
 Keep R1 and R2 ints in memory in canonical form, NReq=7101526.
          There are    12 degrees of freedom in the 1st order CPHF.  IDoFFX=6 NUNeed=     3.
      9 vectors produced by pass  0 Test12= 2.24D-15 8.33D-09 XBig12= 9.70D+01 9.75D+00.
 AX will form     9 AO Fock derivatives at one time.
      9 vectors produced by pass  1 Test12= 2.24D-15 8.33D-09 XBig12= 6.19D-01 3.18D-01.
      9 vectors produced by pass  2 Test12= 2.24D-15 8.33D-09 XBig12= 1.00D-01 2.35D-01.
      7 vectors produced by pass  3 Test12= 2.24D-15 8.33D-09 XBig12= 3.14D-04 6.72D-03.
      6 vectors produced by pass  4 Test12= 2.24D-15 8.33D-09 XBig12= 2.46D-06 6.46D-04.
      3 vectors produced by pass  5 Test12= 2.24D-15 8.33D-09 XBig12= 6.97D-09 3.67D-05.
      1 vectors produced by pass  6 Test12= 2.24D-15 8.33D-09 XBig12= 3.05D-11 2.66D-06.
      1 vectors produced by pass  7 Test12= 2.24D-15 8.33D-09 XBig12= 3.95D-14 6.38D-08.
 InvSVY:  IOpt=1 It=  1 EMax= 5.03D-15
 Solved reduced A of dimension    45 with     9 vectors.
 Isotropic polarizability for W=    0.000000        8.56 Bohr**3.
 End of Minotr F.D. properties file   721 does not exist.
 End of Minotr F.D. properties file   722 does not exist.
 End of Minotr F.D. properties file   788 does not exist.

 **********************************************************************

            Population analysis using the SCF Density.

 **********************************************************************

 Alpha  occ. eigenvalues --  -24.75459  -1.21416  -0.54582  -0.45827  -0.45827
 Alpha  occ. eigenvalues --   -0.32290
 Alpha virt. eigenvalues --   -0.06361   0.24138   0.37326   0.87440   0.91436
 Alpha virt. eigenvalues --    0.91436   1.01692   1.25206   1.25206   1.25245
 Alpha virt. eigenvalues --    1.46096   1.46096   1.46601   2.14638   2.42231
 Alpha virt. eigenvalues --    3.65667   3.67857   3.67857   3.74827   3.74827
 Alpha virt. eigenvalues --    5.86855   5.94237   5.94237  66.47492
  Beta  occ. eigenvalues --  -24.72340  -1.12454  -0.42701  -0.42701  -0.32754
  Beta virt. eigenvalues --   -0.25519  -0.05976   0.23879   0.38177   0.92927
  Beta virt. eigenvalues --    0.92927   0.96608   1.05717   1.24679   1.24679
  Beta virt. eigenvalues --    1.24701   1.46514   1.46654   1.46654   2.14773
  Beta virt. eigenvalues --    2.42295   3.76439   3.76439   3.77563   3.77563
  Beta virt. eigenvalues --    3.79563   5.96880   5.96880   6.00848  66.50596
          Condensed to atoms (all electrons):
               1          2          3
     1  H    0.987797   0.000678   0.001449
     2  H    0.000678   0.999257  -0.000000
     3  F    0.001449  -0.000000   9.008691
          Atomic-Atomic Spin Densities.
               1          2          3
     1  H   -0.987299   0.000041  -0.000705
     2  H    0.000041   0.999062  -0.000000
     3  F   -0.000705  -0.000000   0.989566
 Mulliken charges and spin densities:
               1          2
     1  H    0.010075  -0.987964
     2  H    0.000064   0.999103
     3  F   -0.010140   0.988861
 Sum of Mulliken charges =  -0.00000   1.00000
 Mulliken charges and spin densities with hydrogens summed into heavy atoms:
               1          2
     3  F   -0.000000   1.000000
 APT charges:
               1
     1  H   -0.025665
     2  H    0.000035
     3  F    0.025630
 Sum of APT charges =  -0.00000
 APT charges with hydrogens summed into heavy atoms:
               1
     3  F   -0.000000
 Electronic spatial extent (au):  <R**2>=            474.7657
 Charge=             -0.0000 electrons
 Dipole moment (field-independent basis, Debye):
    X=             -0.1864    Y=             -0.0000    Z=             -0.0000  Tot=              0.1864
 Quadrupole moment (field-independent basis, Debye-Ang):
   XX=             -7.3526   YY=             -7.6183   ZZ=             -7.6183
   XY=             -0.0000   XZ=              0.0000   YZ=              0.0000
 Traceless Quadrupole moment (field-independent basis, Debye-Ang):
   XX=              0.1772   YY=             -0.0886   ZZ=             -0.0886
   XY=             -0.0000   XZ=              0.0000   YZ=              0.0000
 Octapole moment (field-independent basis, Debye-Ang**2):
  XXX=            -28.7210  YYY=              0.0000  ZZZ=             -0.0000  XYY=            -11.8500
  XXY=             -0.0000  XXZ=              0.0000  XZZ=            -11.8500  YZZ=              0.0000
  YYZ=             -0.0000  XYZ=              0.0000
 Hexadecapole moment (field-independent basis, Debye-Ang**3):
 XXXX=           -437.7210 YYYY=             -6.3336 ZZZZ=             -6.3336 XXXY=             -0.0000
 XXXZ=              0.0000 YYYX=             -0.0000 YYYZ=              0.0000 ZZZX=              0.0000
 ZZZY=              0.0000 XXYY=            -83.6928 XXZZ=            -83.6928 YYZZ=             -2.1112
 XXYZ=              0.0000 YYXZ=              0.0000 ZZXY=             -0.0000
 N-N= 2.122618559070D+00 E-N=-2.452080652631D+02  KE= 1.006165512392D+02
  Exact polarizability:      21.616      -0.000       2.038       0.000      -0.000       2.038
 Approx polarizability:      16.848      -0.000       1.934       0.000      -0.000       1.934
                          Isotropic Fermi Contact Couplings
        Atom                 a.u.       MegaHertz       Gauss      10(-4) cm-1
     1  H(1)              -0.29412   -1314.66467    -469.10505    -438.52493
     2  H(1)               0.29677    1326.52566     473.33734     442.48133
     3  F(19)              0.03016     126.91161      45.28522      42.33316
 --------------------------------------------------------
       Center         ----  Spin Dipole Couplings  ----
                      3XX-RR        3YY-RR        3ZZ-RR
 --------------------------------------------------------
     1   Atom        0.012232     -0.006116     -0.006116
     2   Atom       -0.004377      0.002188      0.002188
     3   Atom        6.222847     -3.111423     -3.111424
 --------------------------------------------------------
                        XY            XZ            YZ
 --------------------------------------------------------
     1   Atom        0.000000     -0.000000      0.000000
     2   Atom        0.000000     -0.000000      0.000000
     3   Atom       -0.000001      0.000000     -0.000000
 --------------------------------------------------------


 ---------------------------------------------------------------------------------
              Anisotropic Spin Dipole Couplings in Principal Axis System
 ---------------------------------------------------------------------------------

       Atom             a.u.   MegaHertz   Gauss  10(-4) cm-1        Axes

              Baa    -0.0061    -3.263    -1.164    -1.088 -0.0000  0.9994 -0.0347
     1 H(1)   Bbb    -0.0061    -3.263    -1.164    -1.088 -0.0000  0.0347  0.9994
              Bcc     0.0122     6.526     2.329     2.177  1.0000  0.0000 -0.0000
 
              Baa    -0.0044    -2.335    -0.833    -0.779  1.0000 -0.0000  0.0000
     2 H(1)   Bbb     0.0022     1.168     0.417     0.389  0.0000  0.9994 -0.0333
              Bcc     0.0022     1.168     0.417     0.389 -0.0000  0.0333  0.9994
 
              Baa    -3.1114 -1562.637  -557.588  -521.239  0.0000  0.0365  0.9993
     3 F(19)  Bbb    -3.1114 -1562.636  -557.588  -521.239  0.0000  0.9993 -0.0365
              Bcc     6.2228  3125.273  1115.175  1042.479  1.0000 -0.0000  0.0000
 

 ---------------------------------------------------------------------------------

 Calling FoFJK, ICntrl=    100127 FMM=F ISym2X=0 I1Cent= 0 IOpClX= 1 NMat=1 NMatS=1 NMatT=0.
 Full mass-weighted force constant matrix:
 Low frequencies --- -210.6144  -76.3606   -0.0017   -0.0009   -0.0009   23.7874
 Low frequencies ---   23.7874   57.0443   57.0444
 ******    2 imaginary frequencies (negative Signs) ****** 
 Diagonal vibrational polarizability:
        7.1977325       0.7557693       0.7557702
 Harmonic frequencies (cm**-1), IR intensities (KM/Mole), Raman scattering
 activities (A**4/AMU), depolarization ratios for plane and unpolarized
 incident light, reduced masses (AMU), force constants (mDyne/A),
 and normal coordinates:
                      1                      2                      3
                      A                      A                      A
 Frequencies --   -210.6144               -76.3606                56.4967
 Red. masses --      1.0407                 1.0713                 1.0190
 Frc consts  --      0.0272                 0.0037                 0.0019
 IR Inten    --      9.4608                 0.3159                 0.0896
  Atom  AN      X      Y      Z        X      Y      Z        X      Y      Z
     1   1     0.98  -0.00  -0.00     0.13  -0.00   0.00     0.00   0.00   0.90
     2   1    -0.18   0.00   0.00     0.99   0.00  -0.00    -0.00  -0.00  -0.43
     3   9    -0.04   0.00   0.00    -0.06   0.00  -0.00     0.00  -0.00  -0.02
                      4
                      A
 Frequencies --     56.4968
 Red. masses --      1.0190
 Frc consts  --      0.0019
 IR Inten    --      0.0896
  Atom  AN      X      Y      Z
     1   1     0.00   0.90  -0.00
     2   1     0.00  -0.43   0.00
     3   9    -0.00  -0.02   0.00

 -------------------
 - Thermochemistry -
 -------------------
 Temperature   298.150 Kelvin.  Pressure   1.00000 Atm.
 Atom     1 has atomic number  1 and mass   1.00783
 Atom     2 has atomic number  1 and mass   1.00783
 Atom     3 has atomic number  9 and mass  18.99840
 Molecular mass:    21.01405 amu.
 Principal axes and moments of inertia in atomic units:
                           1         2         3
     Eigenvalues --     0.00000 221.74221 221.74221
           X            1.00000  -0.00000   0.00000
           Y            0.00000   1.00000   0.00000
           Z            0.00000   0.00000   1.00000
 This molecule is a prolate symmetric top.
 Rotational symmetry number  1.
 Rotational temperature (Kelvin)      0.39061
 Rotational constant (GHZ):           8.138916
    2 imaginary frequencies ignored.
 Zero-point vibrational energy        675.9 (Joules/Mol)
                                    0.16153 (Kcal/Mol)
 Warning -- explicit consideration of   2 degrees of freedom as
           vibrations may cause significant error
 Vibrational temperatures:     81.29    81.29
          (Kelvin)
 
 Zero-point correction=                           0.000257 (Hartree/Particle)
 Thermal correction to Energy=                    0.004261
 Thermal correction to Enthalpy=                  0.005205
 Thermal correction to Gibbs Free Energy=        -0.023671
 Sum of electronic and zero-point Energies=           -100.758573
 Sum of electronic and thermal Energies=              -100.754570
 Sum of electronic and thermal Enthalpies=            -100.753626
 Sum of electronic and thermal Free Energies=         -100.782502
 
                     E (Thermal)             CV                S
                      KCal/Mol        Cal/Mol-Kelvin    Cal/Mol-Kelvin
 Total                    2.674              8.918             60.775
 Electronic               0.000              0.000              1.377
 Translational            0.889              2.981             35.068
 Rotational               0.592              1.987             15.178
 Vibrational              1.192              3.950              9.152
 Vibration     1          0.596              1.975              4.576
 Vibration     2          0.596              1.975              4.576
                       Q            Log10(Q)             Ln(Q)
 Total Bot       0.772843D+11         10.888091         25.070757
 Total V=0       0.101507D+12         11.006495         25.343392
 Vib (Bot)       0.133705D+02          1.126147          2.593050
 Vib (Bot)    1  0.365657D+01          0.563074          1.296525
 Vib (Bot)    2  0.365657D+01          0.563073          1.296524
 Vib (V=0)       0.175611D+02          1.244551          2.865685
 Vib (V=0)    1  0.419060D+01          0.622276          1.432843
 Vib (V=0)    2  0.419059D+01          0.622275          1.432842
 Electronic      0.200000D+01          0.301030          0.693147
 Translational   0.378633D+07          6.578219         15.146908
 Rotational      0.763300D+03          2.882695          6.637652
 -------------------------------------------------------------------
 Center     Atomic                   Forces (Hartrees/Bohr)
 Number     Number              X              Y              Z
 -------------------------------------------------------------------
      1        1           0.000656112    0.000000000    0.000000000
      2        1           0.000214286    0.000000000    0.000000000
      3        9          -0.000870398   -0.000000000   -0.000000000
 -------------------------------------------------------------------
 Cartesian Forces:  Max     0.000870398 RMS     0.000370284

 GradGradGradGradGradGradGradGradGradGradGradGradGradGradGradGradGradGrad
 Berny optimization.
 Search for a local minimum.
 Step number   1 out of a maximum of    2
 All quantities printed in internal units (Hartrees-Bohrs-Radians)
 Second derivative matrix not updated -- analytic derivatives used.
 The second derivative matrix:
                          X1        Y1        Z1        X2        Y2
           X1          -0.00159
           Y1           0.00000   0.00011
           Z1           0.00000  -0.00000   0.00011
           X2           0.00026  -0.00000  -0.00000  -0.00026
           Y2           0.00000  -0.00003  -0.00000  -0.00000   0.00003
           Z2           0.00000  -0.00000  -0.00003   0.00000   0.00000
           X3           0.00133  -0.00000   0.00000  -0.00000  -0.00000
           Y3          -0.00000  -0.00008   0.00000   0.00000   0.00000
           Z3          -0.00000   0.00000  -0.00008   0.00000  -0.00000
                          Z2        X3        Y3        Z3
           Z2           0.00003
           X3          -0.00000  -0.00133
           Y3           0.00000   0.00000   0.00008
           Z3           0.00000  -0.00000  -0.00000   0.00008
 ITU=  0
     Eigenvalues ---   -0.00236  -0.00033   0.00014   0.00014
 Eigenvalue     1 is  -2.36D-03 should be greater than     0.000000 Eigenvector:
                          X1        X3        X2        Y1        Y2
   1                    0.94538  -0.32471   0.02876  -0.00000   0.00000
                          Y3        Z1        Z2        Z3
   1                    0.00000  -0.00000   0.00000   0.00000
 Eigenvalue     2 is  -3.28D-04 should be greater than     0.000000 Eigenvector:
                          X2        X3        X1        Y1        Z1
   1                    0.95303  -0.27637  -0.12392  -0.00000   0.00000
                          Y2        Z2        Y3        Z3
   1                    0.00000  -0.00000   0.00000  -0.00000
 Quadratic step=1.174D+00 exceeds max=3.000D-01 adjusted using Lamda=-1.570D-03.
 Angle between NR and scaled steps=  31.22 degrees.
 Angle between quadratic step and forces=  32.97 degrees.
 Linear search not attempted -- first point.
 B after Tr=    -0.085379   -0.000000    0.000000
         Rot=    0.999541    0.030299    0.000000    0.000000 Ang=   3.47 deg.
 Variable       Old X    -DE/DX   Delta X   Delta X   Delta X     New X
                                 (Linear)    (Quad)   (Total)
    X1        0.00000   0.00066   0.00000   0.19498   0.10960   0.10960
    Y1        0.00000   0.00000   0.00000   0.00000   0.00000   0.00000
    Z1        0.00000   0.00000   0.00000   0.00000  -0.00000  -0.00000
    X2       -7.27545   0.00021   0.00000   0.18923   0.10385  -7.17160
    Y2        0.00000   0.00000   0.00000  -0.00000  -0.00000  -0.00000
    Z2        0.00000   0.00000   0.00000  -0.00000   0.00000   0.00000
    X3        6.70853  -0.00087   0.00000  -0.12807  -0.21345   6.49508
    Y3        0.00000  -0.00000   0.00000  -0.00000  -0.00000  -0.00000
    Z3        0.00000  -0.00000   0.00000  -0.00000   0.00000   0.00000
         Item               Value     Threshold  Converged?
 Maximum Force            0.000870     0.000450     NO 
 RMS     Force            0.000370     0.000300     NO 
 Maximum Displacement     0.213447     0.001800     NO 
 RMS     Displacement     0.087150     0.001200     NO 
 Predicted change in Energy=-3.491070D-04
 GradGradGradGradGradGradGradGradGradGradGradGradGradGradGradGradGradGrad


 ----------------------------------------------------------------------

 Electric dipole moment (input orientation):
 (Debye = 10**-18 statcoulomb cm , SI units = C m)
                  (au)            (Debye)         (10**-30 SI)
   Tot        0.733308D-01      0.186388D+00      0.621725D+00
   x         -0.733308D-01     -0.186388D+00     -0.621725D+00
   y          0.000000D+00      0.000000D+00      0.000000D+00
   z          0.000000D+00      0.000000D+00      0.000000D+00

 Dipole polarizability, Alpha (input orientation).
 (esu units = cm**3 , SI units = C**2 m**2 J**-1)
 Alpha(0;0):
               (au)            (10**-24 esu)      (10**-40 SI)
   iso        0.856383D+01      0.126903D+01      0.141198D+01
   aniso      0.195786D+02      0.290126D+01      0.322808D+01
   xx         0.216163D+02      0.320320D+01      0.356404D+01
   yx         0.000000D+00      0.000000D+00      0.000000D+00
   yy         0.203761D+01      0.301943D+00      0.335957D+00
   zx         0.000000D+00      0.000000D+00      0.000000D+00
   zy         0.000000D+00      0.000000D+00      0.000000D+00
   zz         0.203761D+01      0.301943D+00      0.335957D+00

 ----------------------------------------------------------------------

 Dipole orientation:
     1          0.00000000          0.00000000         -0.00000000
     1          0.00000001          0.00000004          7.27544558
     9         -0.00000001         -0.00000003         -6.70852774

 Electric dipole moment (dipole orientation):
 (Debye = 10**-18 statcoulomb cm , SI units = C m)
                  (au)            (Debye)         (10**-30 SI)
   Tot        0.733308D-01      0.186388D+00      0.621725D+00
   x          0.000000D+00      0.000000D+00      0.000000D+00
   y          0.000000D+00      0.000000D+00      0.000000D+00
   z          0.733308D-01      0.186388D+00      0.621725D+00

 Dipole polarizability, Alpha (dipole orientation).
 (esu units = cm**3 , SI units = C**2 m**2 J**-1)
 Alpha(0;0):
               (au)            (10**-24 esu)      (10**-40 SI)
   iso        0.856383D+01      0.126903D+01      0.141198D+01
   aniso      0.195786D+02      0.290126D+01      0.322808D+01
   xx         0.203761D+01      0.301943D+00      0.335957D+00
   yx         0.000000D+00      0.000000D+00      0.000000D+00
   yy         0.203761D+01      0.301943D+00      0.335957D+00
   zx         0.000000D+00      0.000000D+00      0.000000D+00
   zy         0.000000D+00      0.000000D+00      0.000000D+00
   zz         0.216163D+02      0.320320D+01      0.356404D+01

 ----------------------------------------------------------------------
 Unable to Open any file for archive entry.
 1\1\GINC-DESKTOP-B3RIHJD\Freq\UB3LYP\6-311G(d,p)\F1H2(2)\GARYX\22-Aug-
 2025\0\\# sp b3lyp/6-311g** Force nosymm scf=(qc)\\Title Card Required
 \\0,2\H,0.,0.,0.\H,-3.85,0.,0.\F,3.55,0.,0.\\Version=ES64L-G16RevC.01\
 HF=-100.7588308\S2=1.73658\S2-1=0.\S2A=0.75299\RMSD=3.478e-09\RMSF=3.7
 03e-04\Thermal=0.0042605\ETot=-100.7545703\HTot=-100.7536261\GTot=-100
 .7825022\Dipole=-0.0733308,0.,0.\DipoleDeriv=-0.0979668,0.,0.,0.,0.010
 4853,0.,0.,0.,0.0104853,-0.0000514,0.,0.,0.,0.0000788,0.,0.,0.,0.00007
 88,0.0980182,0.,0.,0.,-0.0105641,0.,0.,0.,-0.0105641\Polar=21.6162568,
 -0.0000001,2.0376101,0.,0.,2.0376101\Quadrupole=0.131716,-0.065858,-0.
 065858,0.,0.,0.\PG=C*V [C*(H1H1F1)]\NImag=2\\-0.00158723,0.,0.00011202
 ,0.,0.,0.00011202,0.00025931,0.,0.,-0.00025667,0.,-0.00002930,0.,0.,0.
 00002928,0.,0.,-0.00002930,0.,0.,0.00002928,0.00132792,0.,0.,-0.000002
 64,0.,0.,-0.00132528,0.,-0.00008273,0.,0.,0.00000002,0.,0.,0.00008271,
 0.,0.,-0.00008273,0.,0.,0.00000002,0.,0.,0.00008271\\-0.00065611,0.,0.
 ,-0.00021429,0.,0.,0.00087040,0.,0.\\\@
 The archive entry for this job was punched.


 SCIENCE IS LONG AND LIFE IS SHORT.

                     DON MOSER IN THE FEBRUARY 1979 SMITHSONIAN
 Job cpu time:       0 days  0 hours  0 minutes 33.2 seconds.
 Elapsed time:       0 days  0 hours  0 minutes  4.5 seconds.
 File lengths (MBytes):  RWF=      6 Int=      0 D2E=      0 Chk=      1 Scr=      1
 Normal termination of Gaussian 16 at Fri Aug 22 22:41:58 2025.
