 Entering Gaussian System, Link 0=g16
 Initial command:
 /home/garyx/gaussian/g16/l1.exe "/tmp/gaussian_scratch/Gau-71242.inp" -scrdir="/tmp/gaussian_scratch/"
 Entering Link 1 = /home/garyx/gaussian/g16/l1.exe PID=     71244.
  
 Copyright (c) 1988-2019, Gaussian, Inc.  All Rights Reserved.
  
 This is part of the Gaussian(R) 16 program.  It is based on
 the Gaussian(R) 09 system (copyright 2009, Gaussian, Inc.),
 the Gaussian(R) 03 system (copyright 2003, Gaussian, Inc.),
 the Gaussian(R) 98 system (copyright 1998, Gaussian, Inc.),
 the Gaussian(R) 94 system (copyright 1995, Gaussian, Inc.),
 the Gaussian 92(TM) system (copyright 1992, Gaussian, Inc.),
 the Gaussian 90(TM) system (copyright 1990, Gaussian, Inc.),
 the Gaussian 88(TM) system (copyright 1988, Gaussian, Inc.),
 the Gaussian 86(TM) system (copyright 1986, Carnegie Mellon
 University), and the Gaussian 82(TM) system (copyright 1983,
 Carnegie Mellon University). Gaussian is a federally registered
 trademark of Gaussian, Inc.
  
 This software contains proprietary and confidential information,
 including trade secrets, belonging to Gaussian, Inc.
  
 This software is provided under written license and may be
 used, copied, transmitted, or stored only in accord with that
 written license.
  
 The following legend is applicable only to US Government
 contracts under FAR:
  
                    RESTRICTED RIGHTS LEGEND
  
 Use, reproduction and disclosure by the US Government is
 subject to restrictions as set forth in subparagraphs (a)
 and (c) of the Commercial Computer Software - Restricted
 Rights clause in FAR 52.227-19.
  
 Gaussian, Inc.
 340 Quinnipiac St., Bldg. 40, Wallingford CT 06492
  
  
 ---------------------------------------------------------------
 Warning -- This program may not be used in any manner that
 competes with the business of Gaussian, Inc. or will provide
 assistance to any competitor of Gaussian, Inc.  The licensee
 of this program is prohibited from giving any competitor of
 Gaussian, Inc. access to this program.  By using this program,
 the user acknowledges that Gaussian, Inc. is engaged in the
 business of creating and licensing software in the field of
 computational chemistry and represents and warrants to the
 licensee that it is not a competitor of Gaussian, Inc. and that
 it will not use this program in any manner prohibited above.
 ---------------------------------------------------------------
  

 Cite this work as:
 Gaussian 16, Revision C.01,
 M. J. Frisch, G. W. Trucks, H. B. Schlegel, G. E. Scuseria, 
 M. A. Robb, J. R. Cheeseman, G. Scalmani, V. Barone, 
 G. A. Petersson, H. Nakatsuji, X. Li, M. Caricato, A. V. Marenich, 
 J. Bloino, B. G. Janesko, R. Gomperts, B. Mennucci, H. P. Hratchian, 
 J. V. Ortiz, A. F. Izmaylov, J. L. Sonnenberg, D. Williams-Young, 
 F. Ding, F. Lipparini, F. Egidi, J. Goings, B. Peng, A. Petrone, 
 T. Henderson, D. Ranasinghe, V. G. Zakrzewski, J. Gao, N. Rega, 
 G. Zheng, W. Liang, M. Hada, M. Ehara, K. Toyota, R. Fukuda, 
 J. Hasegawa, M. Ishida, T. Nakajima, Y. Honda, O. Kitao, H. Nakai, 
 T. Vreven, K. Throssell, J. A. Montgomery, Jr., J. E. Peralta, 
 F. Ogliaro, M. J. Bearpark, J. J. Heyd, E. N. Brothers, K. N. Kudin, 
 V. N. Staroverov, T. A. Keith, R. Kobayashi, J. Normand, 
 K. Raghavachari, A. P. Rendell, J. C. Burant, S. S. Iyengar, 
 J. Tomasi, M. Cossi, J. M. Millam, M. Klene, C. Adamo, R. Cammi, 
 J. W. Ochterski, R. L. Martin, K. Morokuma, O. Farkas, 
 J. B. Foresman, and D. J. Fox, Gaussian, Inc., Wallingford CT, 2019.
 
 ******************************************
 Gaussian 16:  ES64L-G16RevC.01  3-Jul-2019
                22-Aug-2025 
 ******************************************
 %mem=10GB
 %nprocs=8
 Will use up to    8 processors via shared memory.
 -----------------------------------------
 # sp b3lyp/6-311g** Force nosymm scf=(qc)
 -----------------------------------------
 1/10=4,30=1,38=1/1,3;
 2/12=2,15=1,17=6,18=5,40=1/2;
 3/5=4,6=6,7=101,11=2,25=1,30=1,71=2,74=-5,140=1/1,2,3;
 4//1;
 5/5=2,8=3,38=5,98=1/8;
 8/6=4,10=90,11=11/1;
 11/6=1,8=1,9=11,15=111,16=1,31=1/1,2,10;
 10/6=1,31=1/2;
 6/7=2,8=2,9=2,10=2,28=1/1;
 7/8=1,10=1,25=1,30=1/1,2,3,16;
 1/10=4,30=1/3;
 99//99;
 -------------------
 Title Card Required
 -------------------
 Symbolic Z-matrix:
 Charge =  0 Multiplicity = 2
 H                     0.        0.        0. 
 H                    -1.7       0.        0. 
 F                     0.55      0.        0. 
 

 GradGradGradGradGradGradGradGradGradGradGradGradGradGradGradGradGradGrad
 Berny optimization.
 Initialization pass.
 Trust Radius=3.00D-01 FncErr=1.00D-07 GrdErr=1.00D-07 EigMax=2.50D+02 EigMin=1.00D-04
 Number of steps in this run=      2 maximum allowed number of steps=      2.
 GradGradGradGradGradGradGradGradGradGradGradGradGradGradGradGradGradGrad

                          Input orientation:                          
 ---------------------------------------------------------------------
 Center     Atomic      Atomic             Coordinates (Angstroms)
 Number     Number       Type             X           Y           Z
 ---------------------------------------------------------------------
      1          1           0        0.000000    0.000000    0.000000
      2          1           0       -1.700000    0.000000    0.000000
      3          9           0        0.550000    0.000000    0.000000
 ---------------------------------------------------------------------
                    Distance matrix (angstroms):
                    1          2          3
     1  H    0.000000
     2  H    1.700000   0.000000
     3  F    0.550000   2.250000   0.000000
 Symmetry turned off by external request.
 Stoichiometry    FH2(2)
 Framework group  C*V[C*(HHF)]
 Deg. of freedom     2
 Full point group                 C*V     NOp   4
 Rotational constants (GHZ):           0.0000000         100.5122092         100.5122092
 Standard basis: 6-311G(d,p) (5D, 7F)
    30 basis functions,    48 primitive gaussians,    31 cartesian basis functions
     6 alpha electrons        5 beta electrons
       nuclear repulsion energy        11.0872530074 Hartrees.
 NAtoms=    3 NActive=    3 NUniq=    3 SFac= 1.00D+00 NAtFMM=   60 NAOKFM=F Big=F
 Integral buffers will be    131072 words long.
 Raffenetti 2 integral format.
 Two-electron integral symmetry is turned off.
 One-electron integrals computed using PRISM.
 NBasis=    30 RedAO= T EigKep=  4.05D-03  NBF=    30
 NBsUse=    30 1.00D-06 EigRej= -1.00D+00 NBFU=    30
 ExpMin= 1.03D-01 ExpMax= 1.14D+04 ExpMxC= 1.72D+03 IAcc=3 IRadAn=         5 AccDes= 0.00D+00
 Harris functional with IExCor=  402 and IRadAn=       5 diagonalized for initial guess.
 HarFok:  IExCor=  402 AccDes= 0.00D+00 IRadAn=         5 IDoV= 1 UseB2=F ITyADJ=14
 ICtDFT=  3500011 ScaDFX=  1.000000  1.000000  1.000000  1.000000
 FoFCou: FMM=F IPFlag=           0 FMFlag=      100000 FMFlg1=           0
         NFxFlg=           0 DoJE=T BraDBF=F KetDBF=T FulRan=T
         wScrn=  0.000000 ICntrl=       500 IOpCl=  0 I1Cent=   200000004 NGrid=           0
         NMat0=    1 NMatS0=      1 NMatT0=    0 NMatD0=    1 NMtDS0=    0 NMtDT0=    0
 Symmetry not used in FoFCou.
 Initial guess <Sx>= 0.0000 <Sy>= 0.0000 <Sz>= 0.5000 <S**2>= 0.7500 S= 0.5000
 Keep R1 and R2 ints in memory in canonical form, NReq=7127049.
 Gradient too large for Newton-Raphson -- use scaled steepest descent instead.
 Gradient too large for Newton-Raphson -- use scaled steepest descent instead.
 Gradient too large for Newton-Raphson -- use scaled steepest descent instead.
     Minimum is close to point  2 DX=  5.94D-03 DF= -7.31D-09 DXR=  9.81D-03 DFR=  9.62D-05 which will be used.
 LinEq1:  Iter=  0 NonCon=     1 RMS=2.27D-04 Max=2.15D-03 NDo=     1
 AX will form     1 AO Fock derivatives at one time.
 LinEq1:  Iter=  1 NonCon=     1 RMS=1.07D-04 Max=6.01D-04 NDo=     1
 LinEq1:  Iter=  2 NonCon=     1 RMS=1.59D-05 Max=1.63D-04 NDo=     1
 LinEq1:  Iter=  3 NonCon=     1 RMS=3.11D-06 Max=2.66D-05 NDo=     1
 LinEq1:  Iter=  4 NonCon=     1 RMS=2.05D-07 Max=1.05D-06 NDo=     1
 LinEq1:  Iter=  5 NonCon=     1 RMS=2.00D-08 Max=9.31D-08 NDo=     1
 LinEq1:  Iter=  6 NonCon=     1 RMS=1.90D-09 Max=1.28D-08 NDo=     1
 LinEq1:  Iter=  7 NonCon=     0 RMS=1.49D-10 Max=8.94D-10 NDo=     1
 Linear equations converged to 1.640D-09 1.640D-08 after     7 iterations.
     Minimum is close to point  2 DX=  2.80D-04 DF= -7.82D-13 DXR=  2.80D-04 DFR=  7.80D-08 which will be used.
 LinEq1:  Iter=  0 NonCon=     1 RMS=1.52D-07 Max=1.07D-06 NDo=     1
 LinEq1:  Iter=  1 NonCon=     1 RMS=6.71D-08 Max=4.36D-07 NDo=     1
 LinEq1:  Iter=  2 NonCon=     1 RMS=7.67D-09 Max=7.92D-08 NDo=     1
 LinEq1:  Iter=  3 NonCon=     1 RMS=6.38D-10 Max=4.50D-09 NDo=     1
 LinEq1:  Iter=  4 NonCon=     1 RMS=1.22D-10 Max=7.03D-10 NDo=     1
 LinEq1:  Iter=  5 NonCon=     0 RMS=2.37D-11 Max=1.16D-10 NDo=     1
 Linear equations converged to 2.730D-11 2.730D-10 after     5 iterations.
 SCF Done:  E(UB3LYP) =  -100.515716435     a.u. after    6 cycles
            Convg  =    0.7530D-09                    26 Fock formations.
              S**2 =  0.7501                  -V/T =  1.9801
 <Sx>= 0.0000 <Sy>= 0.0000 <Sz>= 0.5000 <S**2>= 0.7501 S= 0.5000
 <L.S>=  0.00000000000    
 Annihilation of the first spin contaminant:
 S**2 before annihilation     0.7501,   after     0.7500
 DoSCS=F DFT=T ScalE2(SS,OS)=  1.000000  1.000000
 Range of M.O.s used for correlation:     1    30
 NBasis=    30 NAE=     6 NBE=     5 NFC=     0 NFV=     0
 NROrb=     30 NOA=     6 NOB=     5 NVA=    24 NVB=    25
 Symmetrizing basis deriv contribution to polar:
 IMax=3 JMax=2 DiffMx= 0.00D+00
 G2DrvN: will do     4 centers at a time, making    1 passes.
 Calling FoFCou, ICntrl=  3107 FMM=F I1Cent=   0 AccDes= 0.00D+00.
 End of G2Drv F.D. properties file   721 does not exist.
 End of G2Drv F.D. properties file   722 does not exist.
 End of G2Drv F.D. properties file   788 does not exist.
          IDoAtm=111
          Differentiating once with respect to electric field.
                with respect to dipole field.
          Differentiating once with respect to nuclear coordinates.
 Keep R1 and R2 ints in memory in canonical form, NReq=7101519.
          There are    12 degrees of freedom in the 1st order CPHF.  IDoFFX=6 NUNeed=     3.
      9 vectors produced by pass  0 Test12= 2.24D-15 8.33D-09 XBig12= 3.57D+00 1.36D+00.
 AX will form     9 AO Fock derivatives at one time.
      9 vectors produced by pass  1 Test12= 2.24D-15 8.33D-09 XBig12= 5.94D-02 9.39D-02.
      9 vectors produced by pass  2 Test12= 2.24D-15 8.33D-09 XBig12= 9.79D-04 1.30D-02.
      9 vectors produced by pass  3 Test12= 2.24D-15 8.33D-09 XBig12= 3.31D-06 5.33D-04.
      9 vectors produced by pass  4 Test12= 2.24D-15 8.33D-09 XBig12= 1.42D-08 4.53D-05.
      4 vectors produced by pass  5 Test12= 2.24D-15 8.33D-09 XBig12= 3.97D-11 2.59D-06.
      1 vectors produced by pass  6 Test12= 2.24D-15 8.33D-09 XBig12= 6.39D-14 9.90D-08.
 InvSVY:  IOpt=1 It=  1 EMax= 7.77D-16
 Solved reduced A of dimension    50 with     9 vectors.
 Isotropic polarizability for W=    0.000000        3.57 Bohr**3.
 End of Minotr F.D. properties file   721 does not exist.
 End of Minotr F.D. properties file   722 does not exist.
 End of Minotr F.D. properties file   788 does not exist.

 **********************************************************************

            Population analysis using the SCF Density.

 **********************************************************************

 Alpha  occ. eigenvalues --  -24.62755  -1.38611  -0.62605  -0.43706  -0.43706
 Alpha  occ. eigenvalues --   -0.35387
 Alpha virt. eigenvalues --    0.13084   0.22861   0.58241   0.91022   0.91022
 Alpha virt. eigenvalues --    0.91503   1.21045   1.21045   1.33989   1.55106
 Alpha virt. eigenvalues --    1.55106   1.62927   2.02104   2.19742   3.69753
 Alpha virt. eigenvalues --    3.77144   3.77144   4.49948   4.49948   5.43589
 Alpha virt. eigenvalues --    6.09107   6.09107   7.62069  67.30381
  Beta  occ. eigenvalues --  -24.62699  -1.38434  -0.62380  -0.43674  -0.43674
  Beta virt. eigenvalues --   -0.10572   0.14308   0.32588   0.61930   0.91068
  Beta virt. eigenvalues --    0.91068   0.91621   1.39270   1.39270   1.40158
  Beta virt. eigenvalues --    1.56454   1.56454   1.72556   2.03318   2.45154
  Beta virt. eigenvalues --    3.70292   3.77173   3.77173   4.49990   4.49990
  Beta virt. eigenvalues --    5.43707   6.09110   6.09110   7.62074  67.30433
          Condensed to atoms (all electrons):
               1          2          3
     1  H    0.443492   0.026175   0.358374
     2  H    0.026175   0.982250  -0.019511
     3  F    0.358374  -0.019511   8.844181
          Atomic-Atomic Spin Densities.
               1          2          3
     1  H   -0.003502   0.021056  -0.002360
     2  H    0.021056   0.979781  -0.018437
     3  F   -0.002360  -0.018437   0.023202
 Mulliken charges and spin densities:
               1          2
     1  H    0.171959   0.015194
     2  H    0.011086   0.982401
     3  F   -0.183045   0.002405
 Sum of Mulliken charges =   0.00000   1.00000
 Mulliken charges and spin densities with hydrogens summed into heavy atoms:
               1          2
     3  F    0.000000   1.000000
 APT charges:
               1
     1  H    0.411771
     2  H    0.023982
     3  F   -0.435753
 Sum of APT charges =   0.00000
 APT charges with hydrogens summed into heavy atoms:
               1
     3  F    0.000000
 Electronic spatial extent (au):  <R**2>=             34.5607
 Charge=              0.0000 electrons
 Dipole moment (field-independent basis, Debye):
    X=             -1.4045    Y=              0.0000    Z=             -0.0000  Tot=              1.4045
 Quadrupole moment (field-independent basis, Debye-Ang):
   XX=             -6.6445   YY=             -6.4414   ZZ=             -6.4414
   XY=              0.0000   XZ=             -0.0000   YZ=              0.0000
 Traceless Quadrupole moment (field-independent basis, Debye-Ang):
   XX=             -0.1354   YY=              0.0677   ZZ=              0.0677
   XY=              0.0000   XZ=             -0.0000   YZ=              0.0000
 Octapole moment (field-independent basis, Debye-Ang**2):
  XXX=             -1.9066  YYY=              0.0000  ZZZ=             -0.0000  XYY=             -0.5401
  XXY=              0.0000  XXZ=             -0.0000  XZZ=             -0.5401  YZZ=              0.0000
  YYZ=             -0.0000  XYZ=              0.0000
 Hexadecapole moment (field-independent basis, Debye-Ang**3):
 XXXX=            -34.5136 YYYY=             -4.4458 ZZZZ=             -4.4458 XXXY=             -0.0000
 XXXZ=             -0.0000 YYYX=              0.0000 YYYZ=              0.0000 ZZZX=             -0.0000
 ZZZY=              0.0000 XXYY=             -6.7650 XXZZ=             -6.7650 YYZZ=             -1.4819
 XXYZ=              0.0000 YYXZ=             -0.0000 ZZXY=              0.0000
 N-N= 1.108725300740D+01 E-N=-2.637373740633D+02  KE= 1.025542191169D+02
  Exact polarizability:       5.750      -0.000       2.484       0.000      -0.000       2.484
 Approx polarizability:       5.475      -0.000       2.487       0.000      -0.000       2.487
                          Isotropic Fermi Contact Couplings
        Atom                 a.u.       MegaHertz       Gauss      10(-4) cm-1
     1  H(1)               0.00353      15.76862       5.62664       5.25985
     2  H(1)               0.30247    1351.98876     482.42321     450.97491
     3  F(19)              0.01935      81.39835      29.04495      27.15157
 --------------------------------------------------------
       Center         ----  Spin Dipole Couplings  ----
                      3XX-RR        3YY-RR        3ZZ-RR
 --------------------------------------------------------
     1   Atom        0.081761     -0.040880     -0.040880
     2   Atom        0.001272     -0.000636     -0.000636
     3   Atom        0.116904     -0.058452     -0.058452
 --------------------------------------------------------
                        XY            XZ            YZ
 --------------------------------------------------------
     1   Atom        0.000000      0.000000      0.000000
     2   Atom        0.000000      0.000000      0.000000
     3   Atom        0.000000      0.000000      0.000000
 --------------------------------------------------------


 ---------------------------------------------------------------------------------
              Anisotropic Spin Dipole Couplings in Principal Axis System
 ---------------------------------------------------------------------------------

       Atom             a.u.   MegaHertz   Gauss  10(-4) cm-1        Axes

              Baa    -0.0409   -21.812    -7.783    -7.276 -0.0000  1.0000  0.0000
     1 H(1)   Bbb    -0.0409   -21.812    -7.783    -7.276  0.0000  0.0000  1.0000
              Bcc     0.0818    43.624    15.566    14.551  1.0000  0.0000  0.0000
 
              Baa    -0.0006    -0.339    -0.121    -0.113 -0.0000  1.0000  0.0000
     2 H(1)   Bbb    -0.0006    -0.339    -0.121    -0.113  0.0000  0.0000  1.0000
              Bcc     0.0013     0.679     0.242     0.226  1.0000  0.0000  0.0000
 
              Baa    -0.0585   -29.356   -10.475    -9.792 -0.0000  1.0000  0.0000
     3 F(19)  Bbb    -0.0585   -29.356   -10.475    -9.792  0.0000  0.0000  1.0000
              Bcc     0.1169    58.712    20.950    19.584  1.0000  0.0000  0.0000
 

 ---------------------------------------------------------------------------------

 Calling FoFJK, ICntrl=    100127 FMM=F ISym2X=0 I1Cent= 0 IOpClX= 1 NMat=1 NMatS=1 NMatT=0.
 Full mass-weighted force constant matrix:
 Low frequencies ----7589.9534-7589.9534 -262.3182 -262.3182   -0.0023   -0.0023
 Low frequencies ---   -0.0016  668.224015777.3892
 ******    2 imaginary frequencies (negative Signs) ****** 
 Diagonal vibrational polarizability:
        0.0998747       0.1000343       0.1000343
 Harmonic frequencies (cm**-1), IR intensities (KM/Mole), Raman scattering
 activities (A**4/AMU), depolarization ratios for plane and unpolarized
 incident light, reduced masses (AMU), force constants (mDyne/A),
 and normal coordinates:
                      1                      2                      3
                      A                      A                      A
 Frequencies --  -7370.4490             -7370.4490               668.2240
 Red. masses --      1.0351                 1.0351                 1.0533
 Frc consts  --     33.1285                33.1285                 0.2771
 IR Inten    --    201.9313               201.9313                 1.4779
  Atom  AN      X      Y      Z        X      Y      Z        X      Y      Z
     1   1    -0.00   0.00   0.97     0.00   0.97  -0.00    -0.05   0.00  -0.00
     2   1     0.00  -0.00  -0.24    -0.00  -0.24   0.00     1.00  -0.00   0.00
     3   9     0.00  -0.00  -0.04    -0.00  -0.04   0.00    -0.05  -0.00   0.00
                      4
                      A
 Frequencies --  15777.3892
 Red. masses --      1.0582
 Frc consts  --    155.2027
 IR Inten    --     99.9326
  Atom  AN      X      Y      Z
     1   1     1.00  -0.00   0.00
     2   1    -0.00   0.00  -0.00
     3   9    -0.05   0.00  -0.00

 -------------------
 - Thermochemistry -
 -------------------
 Temperature   298.150 Kelvin.  Pressure   1.00000 Atm.
 Atom     1 has atomic number  1 and mass   1.00783
 Atom     2 has atomic number  1 and mass   1.00783
 Atom     3 has atomic number  9 and mass  18.99840
 Molecular mass:    21.01405 amu.
 Principal axes and moments of inertia in atomic units:
                           1         2         3
     Eigenvalues --     0.00000  17.95544  17.95544
           X            1.00000  -0.00000   0.00000
           Y            0.00000   1.00000   0.00000
           Z            0.00000   0.00000   1.00000
 This molecule is a prolate symmetric top.
 Rotational symmetry number  1.
 Rotational temperature (Kelvin)      4.82383
 Rotational constant (GHZ):         100.512209
    2 imaginary frequencies ignored.
 Zero-point vibrational energy      98366.6 (Joules/Mol)
                                   23.51018 (Kcal/Mol)
 Vibrational temperatures:    961.43 22700.14
          (Kelvin)
 
 Zero-point correction=                           0.037466 (Hartree/Particle)
 Thermal correction to Energy=                    0.039952
 Thermal correction to Enthalpy=                  0.040897
 Thermal correction to Gibbs Free Energy=         0.018578
 Sum of electronic and zero-point Energies=           -100.478251
 Sum of electronic and thermal Energies=              -100.475764
 Sum of electronic and thermal Enthalpies=            -100.474820
 Sum of electronic and thermal Free Energies=         -100.497139
 
                     E (Thermal)             CV                S
                      KCal/Mol        Cal/Mol-Kelvin    Cal/Mol-Kelvin
 Total                   25.071              5.859             46.974
 Electronic               0.000              0.000              1.377
 Translational            0.889              2.981             35.068
 Rotational               0.592              1.987             10.182
 Vibrational             23.589              0.891              0.346
                       Q            Log10(Q)             Ln(Q)
 Total Bot       0.284991D-08         -8.545169        -19.675979
 Total V=0       0.487435D+09          8.687917         20.004667
 Vib (Bot)       0.608890D-17        -17.215461        -39.640064
 Vib (V=0)       0.104142D+01          0.017625          0.040583
 Electronic      0.200000D+01          0.301030          0.693147
 Translational   0.378633D+07          6.578219         15.146908
 Rotational      0.618078D+02          1.791043          4.124029
 -------------------------------------------------------------------
 Center     Atomic                   Forces (Hartrees/Bohr)
 Number     Number              X              Y              Z
 -------------------------------------------------------------------
      1        1          -2.158534499    0.000000000   -0.000000000
      2        1          -0.008140645    0.000000000   -0.000000000
      3        9           2.166675144   -0.000000000    0.000000000
 -------------------------------------------------------------------
 Cartesian Forces:  Max     2.166675144 RMS     1.019467107

 GradGradGradGradGradGradGradGradGradGradGradGradGradGradGradGradGradGrad
 Berny optimization.
 Search for a local minimum.
 Step number   1 out of a maximum of    2
 All quantities printed in internal units (Hartrees-Bohrs-Radians)
 Second derivative matrix not updated -- analytic derivatives used.
 The second derivative matrix:
                          X1        Y1        Z1        X2        Y2
           X1           9.01647
           Y1          -0.00000  -2.08668
           Z1           0.00000   0.00000  -2.08668
           X2          -0.00822   0.00000  -0.00000   0.01622
           Y2           0.00000   0.00240  -0.00000   0.00000  -0.00250
           Z2          -0.00000  -0.00000   0.00240   0.00000   0.00000
           X3          -9.00824   0.00000  -0.00000  -0.00800  -0.00000
           Y3          -0.00000   2.08428  -0.00000  -0.00000   0.00010
           Z3          -0.00000  -0.00000   2.08428   0.00000   0.00000
                          Z2        X3        Y3        Z3
           Z2          -0.00250
           X3           0.00000   9.01624
           Y3           0.00000   0.00000  -2.08438
           Z3           0.00010   0.00000   0.00000  -2.08438
 ITU=  0
     Eigenvalues ---   -2.91142  -2.91142   0.02253  14.74777
 Eigenvalue     1 is  -2.91D+00 should be greater than     0.000000 Eigenvector:
                          Z1        Z3        Z2        Y1        Y3
   1                    0.94350  -0.23762  -0.23063  -0.01158   0.00292
                          Y2        X1        X2        X3
   1                    0.00283  -0.00000   0.00000   0.00000
 Eigenvalue     2 is  -2.91D+00 should be greater than     0.000000 Eigenvector:
                          Y1        Y3        Y2        Z1        Z3
   1                    0.94350  -0.23762  -0.23063   0.01158  -0.00292
                          Z2        X1        X2        X3
   1                   -0.00283   0.00000  -0.00000  -0.00000
 Quadratic step=4.875D-01 exceeds max=3.000D-01 adjusted using Lamda=-2.050D-02.
 Angle between NR and scaled steps=  15.86 degrees.
 Angle between quadratic step and forces=  55.58 degrees.
 Linear search not attempted -- first point.
 B after Tr=     0.081377    0.000000    0.000000
         Rot=    0.920400    0.390978    0.000000    0.000000 Ang=  46.03 deg.
 Variable       Old X    -DE/DX   Delta X   Delta X   Delta X     New X
                                 (Linear)    (Quad)   (Total)
    X1        0.00000  -2.15853   0.00000  -0.11752  -0.03614  -0.03614
    Y1        0.00000   0.00000   0.00000   0.00000  -0.00000  -0.00000
    Z1        0.00000  -0.00000   0.00000  -0.00000  -0.00000  -0.00000
    X2       -3.21253  -0.00814   0.00000  -0.24868  -0.16730  -3.37984
    Y2        0.00000   0.00000   0.00000  -0.00000   0.00000   0.00000
    Z2        0.00000  -0.00000   0.00000   0.00000   0.00000   0.00000
    X3        1.03935   2.16668   0.00000   0.12206   0.20344   1.24279
    Y3        0.00000  -0.00000   0.00000  -0.00000   0.00000   0.00000
    Z3        0.00000   0.00000   0.00000   0.00000   0.00000   0.00000
         Item               Value     Threshold  Converged?
 Maximum Force            2.166675     0.000450     NO 
 RMS     Force            1.019467     0.000300     NO 
 Maximum Displacement     0.203441     0.001800     NO 
 RMS     Displacement     0.088622     0.001200     NO 
 Predicted change in Energy=-2.610093D-01
 GradGradGradGradGradGradGradGradGradGradGradGradGradGradGradGradGradGrad


 ----------------------------------------------------------------------

 Electric dipole moment (input orientation):
 (Debye = 10**-18 statcoulomb cm , SI units = C m)
                  (au)            (Debye)         (10**-30 SI)
   Tot        0.552583D+00      0.140453D+01      0.468499D+01
   x         -0.552583D+00     -0.140453D+01     -0.468499D+01
   y          0.000000D+00      0.000000D+00      0.000000D+00
   z          0.000000D+00      0.000000D+00      0.000000D+00

 Dipole polarizability, Alpha (input orientation).
 (esu units = cm**3 , SI units = C**2 m**2 J**-1)
 Alpha(0;0):
               (au)            (10**-24 esu)      (10**-40 SI)
   iso        0.357232D+01      0.529363D+00      0.588995D+00
   aniso      0.326612D+01      0.483989D+00      0.538510D+00
   xx         0.574973D+01      0.852022D+00      0.948002D+00
   yx         0.000000D+00      0.000000D+00      0.000000D+00
   yy         0.248361D+01      0.368033D+00      0.409492D+00
   zx         0.000000D+00      0.000000D+00      0.000000D+00
   zy         0.000000D+00      0.000000D+00      0.000000D+00
   zz         0.248361D+01      0.368033D+00      0.409492D+00

 ----------------------------------------------------------------------

 Dipole orientation:
     1          0.00000000          0.00000000          0.00000000
     1          0.00000000         -0.00000000          3.21253441
     9         -0.00000000          0.00000000         -1.03934937

 Electric dipole moment (dipole orientation):
 (Debye = 10**-18 statcoulomb cm , SI units = C m)
                  (au)            (Debye)         (10**-30 SI)
   Tot        0.552583D+00      0.140453D+01      0.468499D+01
   x          0.000000D+00      0.000000D+00      0.000000D+00
   y          0.000000D+00      0.000000D+00      0.000000D+00
   z          0.552583D+00      0.140453D+01      0.468499D+01

 Dipole polarizability, Alpha (dipole orientation).
 (esu units = cm**3 , SI units = C**2 m**2 J**-1)
 Alpha(0;0):
               (au)            (10**-24 esu)      (10**-40 SI)
   iso        0.357232D+01      0.529363D+00      0.588995D+00
   aniso      0.326612D+01      0.483989D+00      0.538510D+00
   xx         0.248361D+01      0.368033D+00      0.409492D+00
   yx         0.000000D+00      0.000000D+00      0.000000D+00
   yy         0.248361D+01      0.368033D+00      0.409492D+00
   zx         0.000000D+00      0.000000D+00      0.000000D+00
   zy         0.000000D+00      0.000000D+00      0.000000D+00
   zz         0.574973D+01      0.852022D+00      0.948002D+00

 ----------------------------------------------------------------------
 Unable to Open any file for archive entry.
 1\1\GINC-DESKTOP-B3RIHJD\Freq\UB3LYP\6-311G(d,p)\F1H2(2)\GARYX\22-Aug-
 2025\0\\# sp b3lyp/6-311g** Force nosymm scf=(qc)\\Title Card Required
 \\0,2\H,0.,0.,0.\H,-1.7,0.,0.\F,0.55,0.,0.\\Version=ES64L-G16RevC.01\H
 F=-100.5157164\S2=0.75005\S2-1=0.\S2A=0.75\RMSD=4.591e-11\RMSF=1.019e+
 00\ZeroPoint=0.0374659\Thermal=0.0399524\ETot=-100.475764\HTot=-100.47
 48198\GTot=-100.4971387\Dipole=-0.5525829,0.,0.\DipoleDeriv=0.3113408,
 0.,0.,0.,0.4619868,0.,0.,0.,0.4619868,0.0378812,0.,0.,0.,0.0170317,0.,
 0.,0.,0.0170317,-0.349222,0.,0.,0.,-0.4790186,0.,0.,0.,-0.4790186\Pola
 r=5.7497267,0.,2.4836101,0.,0.,2.4836101\Quadrupole=-0.1006859,0.05034
 29,0.0503429,0.,0.,0.\PG=C*V [C*(H1H1F1)]\NImag=2\\9.01646655,0.,-2.08
 667666,0.,0.,-2.08667666,-0.00822247,0.,0.,0.01621957,0.,0.00239884,0.
 ,0.,-0.00250103,0.,0.,0.00239884,0.,0.,-0.00250103,-9.00824408,0.,0.,-
 0.00799710,0.,0.,9.01624118,0.,2.08427782,0.,0.,0.00010219,0.,0.,-2.08
 438000,0.,0.,2.08427782,0.,0.,0.00010219,0.,0.,-2.08438000\\2.15853450
 ,0.,0.,0.00814065,0.,0.,-2.16667514,0.,0.\\\@
 The archive entry for this job was punched.


 We find comfort among those who agree with us -- growth among those who don't.
 -- Frank A. Clark
 Job cpu time:       0 days  0 hours  0 minutes 14.1 seconds.
 Elapsed time:       0 days  0 hours  0 minutes  2.0 seconds.
 File lengths (MBytes):  RWF=      6 Int=      0 D2E=      0 Chk=      1 Scr=      1
 Normal termination of Gaussian 16 at Fri Aug 22 15:39:08 2025.
