 Entering Gaussian System, Link 0=g16
 Initial command:
 /home/garyx/gaussian/g16/l1.exe "/tmp/gaussian_scratch/Gau-155844.inp" -scrdir="/tmp/gaussian_scratch/"
 Entering Link 1 = /home/garyx/gaussian/g16/l1.exe PID=    155846.
  
 Copyright (c) 1988-2019, Gaussian, Inc.  All Rights Reserved.
  
 This is part of the Gaussian(R) 16 program.  It is based on
 the Gaussian(R) 09 system (copyright 2009, Gaussian, Inc.),
 the Gaussian(R) 03 system (copyright 2003, Gaussian, Inc.),
 the Gaussian(R) 98 system (copyright 1998, Gaussian, Inc.),
 the Gaussian(R) 94 system (copyright 1995, Gaussian, Inc.),
 the Gaussian 92(TM) system (copyright 1992, Gaussian, Inc.),
 the Gaussian 90(TM) system (copyright 1990, Gaussian, Inc.),
 the Gaussian 88(TM) system (copyright 1988, Gaussian, Inc.),
 the Gaussian 86(TM) system (copyright 1986, Carnegie Mellon
 University), and the Gaussian 82(TM) system (copyright 1983,
 Carnegie Mellon University). Gaussian is a federally registered
 trademark of Gaussian, Inc.
  
 This software contains proprietary and confidential information,
 including trade secrets, belonging to Gaussian, Inc.
  
 This software is provided under written license and may be
 used, copied, transmitted, or stored only in accord with that
 written license.
  
 The following legend is applicable only to US Government
 contracts under FAR:
  
                    RESTRICTED RIGHTS LEGEND
  
 Use, reproduction and disclosure by the US Government is
 subject to restrictions as set forth in subparagraphs (a)
 and (c) of the Commercial Computer Software - Restricted
 Rights clause in FAR 52.227-19.
  
 Gaussian, Inc.
 340 Quinnipiac St., Bldg. 40, Wallingford CT 06492
  
  
 ---------------------------------------------------------------
 Warning -- This program may not be used in any manner that
 competes with the business of Gaussian, Inc. or will provide
 assistance to any competitor of Gaussian, Inc.  The licensee
 of this program is prohibited from giving any competitor of
 Gaussian, Inc. access to this program.  By using this program,
 the user acknowledges that Gaussian, Inc. is engaged in the
 business of creating and licensing software in the field of
 computational chemistry and represents and warrants to the
 licensee that it is not a competitor of Gaussian, Inc. and that
 it will not use this program in any manner prohibited above.
 ---------------------------------------------------------------
  

 Cite this work as:
 Gaussian 16, Revision C.01,
 M. J. Frisch, G. W. Trucks, H. B. Schlegel, G. E. Scuseria, 
 M. A. Robb, J. R. Cheeseman, G. Scalmani, V. Barone, 
 G. A. Petersson, H. Nakatsuji, X. Li, M. Caricato, A. V. Marenich, 
 J. Bloino, B. G. Janesko, R. Gomperts, B. Mennucci, H. P. Hratchian, 
 J. V. Ortiz, A. F. Izmaylov, J. L. Sonnenberg, D. Williams-Young, 
 F. Ding, F. Lipparini, F. Egidi, J. Goings, B. Peng, A. Petrone, 
 T. Henderson, D. Ranasinghe, V. G. Zakrzewski, J. Gao, N. Rega, 
 G. Zheng, W. Liang, M. Hada, M. Ehara, K. Toyota, R. Fukuda, 
 J. Hasegawa, M. Ishida, T. Nakajima, Y. Honda, O. Kitao, H. Nakai, 
 T. Vreven, K. Throssell, J. A. Montgomery, Jr., J. E. Peralta, 
 F. Ogliaro, M. J. Bearpark, J. J. Heyd, E. N. Brothers, K. N. Kudin, 
 V. N. Staroverov, T. A. Keith, R. Kobayashi, J. Normand, 
 K. Raghavachari, A. P. Rendell, J. C. Burant, S. S. Iyengar, 
 J. Tomasi, M. Cossi, J. M. Millam, M. Klene, C. Adamo, R. Cammi, 
 J. W. Ochterski, R. L. Martin, K. Morokuma, O. Farkas, 
 J. B. Foresman, and D. J. Fox, Gaussian, Inc., Wallingford CT, 2019.
 
 ******************************************
 Gaussian 16:  ES64L-G16RevC.01  3-Jul-2019
                22-Aug-2025 
 ******************************************
 %mem=10GB
 %nprocs=8
 Will use up to    8 processors via shared memory.
 -----------------------------------------
 # sp b3lyp/6-311g** Force nosymm scf=(qc)
 -----------------------------------------
 1/10=4,30=1,38=1/1,3;
 2/12=2,15=1,17=6,18=5,40=1/2;
 3/5=4,6=6,7=101,11=2,25=1,30=1,71=2,74=-5,140=1/1,2,3;
 4//1;
 5/5=2,8=3,38=5,98=1/8;
 8/6=4,10=90,11=11/1;
 11/6=1,8=1,9=11,15=111,16=1,31=1/1,2,10;
 10/6=1,31=1/2;
 6/7=2,8=2,9=2,10=2,28=1/1;
 7/8=1,10=1,25=1,30=1/1,2,3,16;
 1/10=4,30=1/3;
 99//99;
 -------------------
 Title Card Required
 -------------------
 Symbolic Z-matrix:
 Charge =  0 Multiplicity = 2
 H                     0.        0.        0. 
 H                    -3.25      0.        0. 
 F                     0.85      0.        0. 
 

 GradGradGradGradGradGradGradGradGradGradGradGradGradGradGradGradGradGrad
 Berny optimization.
 Initialization pass.
 Trust Radius=3.00D-01 FncErr=1.00D-07 GrdErr=1.00D-07 EigMax=2.50D+02 EigMin=1.00D-04
 Number of steps in this run=      2 maximum allowed number of steps=      2.
 GradGradGradGradGradGradGradGradGradGradGradGradGradGradGradGradGradGrad

                          Input orientation:                          
 ---------------------------------------------------------------------
 Center     Atomic      Atomic             Coordinates (Angstroms)
 Number     Number       Type             X           Y           Z
 ---------------------------------------------------------------------
      1          1           0        0.000000    0.000000    0.000000
      2          1           0       -3.250000    0.000000    0.000000
      3          9           0        0.850000    0.000000    0.000000
 ---------------------------------------------------------------------
                    Distance matrix (angstroms):
                    1          2          3
     1  H    0.000000
     2  H    3.250000   0.000000
     3  F    0.850000   4.100000   0.000000
 Symmetry turned off by external request.
 Stoichiometry    FH2(2)
 Framework group  C*V[C*(HHF)]
 Deg. of freedom     2
 Full point group                 C*V     NOp   4
 Rotational constants (GHZ):           0.0000000          30.6562172          30.6562172
 Standard basis: 6-311G(d,p) (5D, 7F)
    30 basis functions,    48 primitive gaussians,    31 cartesian basis functions
     6 alpha electrons        5 beta electrons
       nuclear repulsion energy         6.9274850905 Hartrees.
 NAtoms=    3 NActive=    3 NUniq=    3 SFac= 1.00D+00 NAtFMM=   60 NAOKFM=F Big=F
 Integral buffers will be    131072 words long.
 Raffenetti 2 integral format.
 Two-electron integral symmetry is turned off.
 One-electron integrals computed using PRISM.
 NBasis=    30 RedAO= T EigKep=  2.25D-02  NBF=    30
 NBsUse=    30 1.00D-06 EigRej= -1.00D+00 NBFU=    30
 ExpMin= 1.03D-01 ExpMax= 1.14D+04 ExpMxC= 1.72D+03 IAcc=3 IRadAn=         5 AccDes= 0.00D+00
 Harris functional with IExCor=  402 and IRadAn=       5 diagonalized for initial guess.
 HarFok:  IExCor=  402 AccDes= 0.00D+00 IRadAn=         5 IDoV= 1 UseB2=F ITyADJ=14
 ICtDFT=  3500011 ScaDFX=  1.000000  1.000000  1.000000  1.000000
 FoFCou: FMM=F IPFlag=           0 FMFlag=      100000 FMFlg1=           0
         NFxFlg=           0 DoJE=T BraDBF=F KetDBF=T FulRan=T
         wScrn=  0.000000 ICntrl=       500 IOpCl=  0 I1Cent=   200000004 NGrid=           0
         NMat0=    1 NMatS0=      1 NMatT0=    0 NMatD0=    1 NMtDS0=    0 NMtDT0=    0
 Symmetry not used in FoFCou.
 Initial guess <Sx>= 0.0000 <Sy>= 0.0000 <Sz>= 0.5000 <S**2>= 0.7500 S= 0.5000
 Keep R1 and R2 ints in memory in canonical form, NReq=7127049.
 Gradient too large for Newton-Raphson -- use scaled steepest descent instead.
     Accept linear search using points  2 and  3.
 Gradient too large for Newton-Raphson -- use scaled steepest descent instead.
 Gradient too large for Newton-Raphson -- use scaled steepest descent instead.
     Accept linear search using points  1 and  2.
 LinEq1:  Iter=  0 NonCon=     1 RMS=2.74D-04 Max=3.05D-03 NDo=     1
 AX will form     1 AO Fock derivatives at one time.
 LinEq1:  Iter=  1 NonCon=     1 RMS=8.91D-05 Max=4.44D-04 NDo=     1
 LinEq1:  Iter=  2 NonCon=     1 RMS=1.29D-05 Max=8.64D-05 NDo=     1
 LinEq1:  Iter=  3 NonCon=     1 RMS=2.77D-06 Max=2.17D-05 NDo=     1
 LinEq1:  Iter=  4 NonCon=     1 RMS=1.98D-07 Max=1.46D-06 NDo=     1
 LinEq1:  Iter=  5 NonCon=     1 RMS=1.88D-08 Max=6.95D-08 NDo=     1
 LinEq1:  Iter=  6 NonCon=     0 RMS=9.56D-10 Max=5.99D-09 NDo=     1
 Linear equations converged to 1.640D-09 1.640D-08 after     6 iterations.
     Minimum is close to point  2 DX=  1.31D-03 DF= -1.91D-11 DXR=  1.31D-03 DFR=  1.72D-06 which will be used.
 LinEq1:  Iter=  0 NonCon=     1 RMS=3.61D-07 Max=5.52D-06 NDo=     1
 LinEq1:  Iter=  1 NonCon=     1 RMS=1.71D-08 Max=1.25D-07 NDo=     1
 LinEq1:  Iter=  2 NonCon=     1 RMS=9.79D-09 Max=7.31D-08 NDo=     1
 LinEq1:  Iter=  3 NonCon=     1 RMS=2.88D-09 Max=2.48D-08 NDo=     1
 LinEq1:  Iter=  4 NonCon=     1 RMS=2.14D-10 Max=1.81D-09 NDo=     1
 LinEq1:  Iter=  5 NonCon=     1 RMS=4.86D-11 Max=3.60D-10 NDo=     1
 LinEq1:  Iter=  6 NonCon=     0 RMS=2.00D-12 Max=1.58D-11 NDo=     1
 Linear equations converged to 2.596D-11 2.596D-10 after     6 iterations.
 SCF Done:  E(UB3LYP) =  -100.965538578     a.u. after    6 cycles
            Convg  =    0.4465D-10                    25 Fock formations.
              S**2 =  0.7500                  -V/T =  1.9996
 <Sx>= 0.0000 <Sy>= 0.0000 <Sz>= 0.5000 <S**2>= 0.7500 S= 0.5000
 <L.S>=  0.00000000000    
 Annihilation of the first spin contaminant:
 S**2 before annihilation     0.7500,   after     0.7500
 DoSCS=F DFT=T ScalE2(SS,OS)=  1.000000  1.000000
 Range of M.O.s used for correlation:     1    30
 NBasis=    30 NAE=     6 NBE=     5 NFC=     0 NFV=     0
 NROrb=     30 NOA=     6 NOB=     5 NVA=    24 NVB=    25
 Symmetrizing basis deriv contribution to polar:
 IMax=3 JMax=2 DiffMx= 0.00D+00
 G2DrvN: will do     4 centers at a time, making    1 passes.
 Calling FoFCou, ICntrl=  3107 FMM=F I1Cent=   0 AccDes= 0.00D+00.
 End of G2Drv F.D. properties file   721 does not exist.
 End of G2Drv F.D. properties file   722 does not exist.
 End of G2Drv F.D. properties file   788 does not exist.
          IDoAtm=111
          Differentiating once with respect to electric field.
                with respect to dipole field.
          Differentiating once with respect to nuclear coordinates.
 Keep R1 and R2 ints in memory in canonical form, NReq=7101519.
          There are    12 degrees of freedom in the 1st order CPHF.  IDoFFX=6 NUNeed=     3.
      9 vectors produced by pass  0 Test12= 2.24D-15 8.33D-09 XBig12= 3.86D+00 9.16D-01.
 AX will form     9 AO Fock derivatives at one time.
      9 vectors produced by pass  1 Test12= 2.24D-15 8.33D-09 XBig12= 3.29D-01 1.79D-01.
      9 vectors produced by pass  2 Test12= 2.24D-15 8.33D-09 XBig12= 3.88D-03 1.83D-02.
      9 vectors produced by pass  3 Test12= 2.24D-15 8.33D-09 XBig12= 3.29D-06 5.94D-04.
      7 vectors produced by pass  4 Test12= 2.24D-15 8.33D-09 XBig12= 5.72D-09 2.90D-05.
      4 vectors produced by pass  5 Test12= 2.24D-15 8.33D-09 XBig12= 1.31D-11 1.27D-06.
      1 vectors produced by pass  6 Test12= 2.24D-15 8.33D-09 XBig12= 2.79D-14 6.90D-08.
 InvSVY:  IOpt=1 It=  1 EMax= 4.44D-16
 Solved reduced A of dimension    48 with     9 vectors.
 Isotropic polarizability for W=    0.000000        3.43 Bohr**3.
 End of Minotr F.D. properties file   721 does not exist.
 End of Minotr F.D. properties file   722 does not exist.
 End of Minotr F.D. properties file   788 does not exist.

 **********************************************************************

            Population analysis using the SCF Density.

 **********************************************************************

 Alpha  occ. eigenvalues --  -24.63848  -1.20897  -0.55007  -0.40129  -0.40129
 Alpha  occ. eigenvalues --   -0.33776
 Alpha virt. eigenvalues --    0.04297   0.24941   0.42506   0.94343   0.94343
 Alpha virt. eigenvalues --    0.97397   1.23276   1.23744   1.23744   1.30860
 Alpha virt. eigenvalues --    1.38364   1.38364   2.03248   2.14566   2.42920
 Alpha virt. eigenvalues --    3.80663   3.80663   4.12514   4.12514   4.77333
 Alpha virt. eigenvalues --    6.01934   6.01934   6.68335  66.70072
  Beta  occ. eigenvalues --  -24.63846  -1.20892  -0.55002  -0.40127  -0.40127
  Beta virt. eigenvalues --   -0.05978   0.05105   0.39215   0.42471   0.94343
  Beta virt. eigenvalues --    0.94343   0.97386   1.29884   1.38364   1.38364
  Beta virt. eigenvalues --    1.50559   1.50687   1.50687   2.03298   2.42858
  Beta virt. eigenvalues --    2.44306   3.80664   3.80664   4.12520   4.12520
  Beta virt. eigenvalues --    4.77319   6.01935   6.01935   6.68340  66.70073
          Condensed to atoms (all electrons):
               1          2          3
     1  H    0.422561   0.001705   0.292177
     2  H    0.001705   0.996964  -0.000046
     3  F    0.292177  -0.000046   8.992802
          Atomic-Atomic Spin Densities.
               1          2          3
     1  H   -0.000832   0.001441   0.000348
     2  H    0.001441   0.996884  -0.000094
     3  F    0.000348  -0.000094   0.000558
 Mulliken charges and spin densities:
               1          2
     1  H    0.283557   0.000957
     2  H    0.001377   0.998231
     3  F   -0.284934   0.000812
 Sum of Mulliken charges =   0.00000   1.00000
 Mulliken charges and spin densities with hydrogens summed into heavy atoms:
               1          2
     3  F    0.000000   1.000000
 APT charges:
               1
     1  H    0.399584
     2  H   -0.001421
     3  F   -0.398163
 Sum of APT charges =   0.00000
 APT charges with hydrogens summed into heavy atoms:
               1
     3  F    0.000000
 Electronic spatial extent (au):  <R**2>=             76.8172
 Charge=              0.0000 electrons
 Dipole moment (field-independent basis, Debye):
    X=             -1.8281    Y=              0.0000    Z=             -0.0000  Tot=              1.8281
 Quadrupole moment (field-independent basis, Debye-Ang):
   XX=             -7.7161   YY=             -6.8195   ZZ=             -6.8195
   XY=              0.0000   XZ=             -0.0000   YZ=             -0.0000
 Traceless Quadrupole moment (field-independent basis, Debye-Ang):
   XX=             -0.5977   YY=              0.2989   ZZ=              0.2989
   XY=              0.0000   XZ=             -0.0000   YZ=             -0.0000
 Octapole moment (field-independent basis, Debye-Ang**2):
  XXX=             -0.3553  YYY=             -0.0000  ZZZ=             -0.0000  XYY=              0.1663
  XXY=              0.0000  XXZ=             -0.0000  XZZ=              0.1663  YZZ=             -0.0000
  YYZ=             -0.0000  XYZ=             -0.0000
 Hexadecapole moment (field-independent basis, Debye-Ang**3):
 XXXX=           -111.0984 YYYY=             -4.8538 ZZZZ=             -4.8538 XXXY=              0.0000
 XXXZ=             -0.0000 YYYX=             -0.0000 YYYZ=             -0.0000 ZZZX=             -0.0000
 ZZZY=             -0.0000 XXYY=            -19.8655 XXZZ=            -19.8655 YYZZ=             -1.6179
 XXYZ=             -0.0000 YYXZ=             -0.0000 ZZXY=              0.0000
 N-N= 6.927485090488D+00 E-N=-2.555598898868D+02  KE= 1.010109264455D+02
  Exact polarizability:       5.407      -0.000       2.440       0.000       0.000       2.440
 Approx polarizability:       6.088       0.000       2.420      -0.000       0.000       2.420
                          Isotropic Fermi Contact Couplings
        Atom                 a.u.       MegaHertz       Gauss      10(-4) cm-1
     1  H(1)              -0.00007      -0.30615      -0.10924      -0.10212
     2  H(1)               0.29663    1325.89510     473.11234     442.27100
     3  F(19)             -0.00060      -2.52432      -0.90074      -0.84202
 --------------------------------------------------------
       Center         ----  Spin Dipole Couplings  ----
                      3XX-RR        3YY-RR        3ZZ-RR
 --------------------------------------------------------
     1   Atom        0.009269     -0.004635     -0.004635
     2   Atom        0.000143     -0.000072     -0.000072
     3   Atom        0.008622     -0.004311     -0.004311
 --------------------------------------------------------
                        XY            XZ            YZ
 --------------------------------------------------------
     1   Atom        0.000000      0.000000      0.000000
     2   Atom        0.000000      0.000000      0.000000
     3   Atom        0.000000      0.000000      0.000000
 --------------------------------------------------------


 ---------------------------------------------------------------------------------
              Anisotropic Spin Dipole Couplings in Principal Axis System
 ---------------------------------------------------------------------------------

       Atom             a.u.   MegaHertz   Gauss  10(-4) cm-1        Axes

              Baa    -0.0046    -2.473    -0.882    -0.825  0.0000  0.0000  1.0000
     1 H(1)   Bbb    -0.0046    -2.473    -0.882    -0.825 -0.0000  1.0000  0.0000
              Bcc     0.0093     4.946     1.765     1.650  1.0000  0.0000  0.0000
 
              Baa    -0.0001    -0.038    -0.014    -0.013 -0.0000  1.0000  0.0000
     2 H(1)   Bbb    -0.0001    -0.038    -0.014    -0.013  0.0000  0.0000  1.0000
              Bcc     0.0001     0.076     0.027     0.026  1.0000  0.0000  0.0000
 
              Baa    -0.0043    -2.165    -0.773    -0.722  0.0000  0.0000  1.0000
     3 F(19)  Bbb    -0.0043    -2.165    -0.773    -0.722 -0.0000  1.0000  0.0000
              Bcc     0.0086     4.330     1.545     1.444  1.0000  0.0000  0.0000
 

 ---------------------------------------------------------------------------------

 Calling FoFJK, ICntrl=    100127 FMM=F ISym2X=0 I1Cent= 0 IOpClX= 1 NMat=1 NMatS=1 NMatT=0.
 Full mass-weighted force constant matrix:
 Low frequencies ----1351.4243-1351.4243  -49.1464   -0.0018   -0.0018    0.0006
 Low frequencies ---   19.3900   19.3900 5311.2001
 ******    3 imaginary frequencies (negative Signs) ****** 
 Diagonal vibrational polarizability:
        0.9430402       2.8665964       2.8665964
 Harmonic frequencies (cm**-1), IR intensities (KM/Mole), Raman scattering
 activities (A**4/AMU), depolarization ratios for plane and unpolarized
 incident light, reduced masses (AMU), force constants (mDyne/A),
 and normal coordinates:
                      1                      2                      3
                      A                      A                      A
 Frequencies --  -1322.7634             -1322.7634               -49.1464
 Red. masses --      1.0383                 1.0383                 1.0532
 Frc consts  --      1.0704                 1.0704                 0.0015
 IR Inten    --    186.3793               186.3793                 0.0755
  Atom  AN      X      Y      Z        X      Y      Z        X      Y      Z
     1   1     0.00   0.98   0.04    -0.00  -0.04   0.98    -0.05   0.00  -0.00
     2   1    -0.00  -0.20  -0.01     0.00   0.01  -0.20     1.00  -0.00   0.00
     3   9    -0.00  -0.04  -0.00    -0.00   0.00  -0.04    -0.05  -0.00   0.00
                      4
                      A
 Frequencies --   5311.2001
 Red. masses --      1.0583
 Frc consts  --     17.5895
 IR Inten    --    106.6699
  Atom  AN      X      Y      Z
     1   1     1.00  -0.00   0.00
     2   1     0.00   0.00  -0.00
     3   9    -0.05   0.00  -0.00

 -------------------
 - Thermochemistry -
 -------------------
 Temperature   298.150 Kelvin.  Pressure   1.00000 Atm.
 Atom     1 has atomic number  1 and mass   1.00783
 Atom     2 has atomic number  1 and mass   1.00783
 Atom     3 has atomic number  9 and mass  18.99840
 Molecular mass:    21.01405 amu.
 Principal axes and moments of inertia in atomic units:
                           1         2         3
     Eigenvalues --     0.00000  58.87032  58.87032
           X            1.00000  -0.00000   0.00000
           Y            0.00000   1.00000   0.00000
           Z            0.00000   0.00000   1.00000
 This molecule is a prolate symmetric top.
 Rotational symmetry number  1.
 Rotational temperature (Kelvin)      1.47127
 Rotational constant (GHZ):          30.656217
    3 imaginary frequencies ignored.
 Zero-point vibrational energy      31768.0 (Joules/Mol)
                                    7.59274 (Kcal/Mol)
 Vibrational temperatures:   7641.63
          (Kelvin)
 
 Zero-point correction=                           0.012100 (Hartree/Particle)
 Thermal correction to Energy=                    0.014460
 Thermal correction to Enthalpy=                  0.015404
 Thermal correction to Gibbs Free Energy=        -0.007871
 Sum of electronic and zero-point Energies=           -100.953439
 Sum of electronic and thermal Energies=              -100.951078
 Sum of electronic and thermal Enthalpies=            -100.950134
 Sum of electronic and thermal Free Energies=         -100.973410
 
                     E (Thermal)             CV                S
                      KCal/Mol        Cal/Mol-Kelvin    Cal/Mol-Kelvin
 Total                    9.074              4.968             48.988
 Electronic               0.000              0.000              1.377
 Translational            0.889              2.981             35.068
 Rotational               0.592              1.987             12.542
 Vibrational              7.593              0.000              0.000
                       Q            Log10(Q)             Ln(Q)
 Total Bot       0.417324D+04          3.620473          8.336448
 Total V=0       0.153459D+10          9.185992         21.151528
 Vib (Bot)       0.271945D-05         -5.565519        -12.815080
 Vib (V=0)       0.100000D+01          0.000000          0.000000
 Electronic      0.200000D+01          0.301030          0.693147
 Translational   0.378633D+07          6.578219         15.146908
 Rotational      0.202649D+03          2.306743          5.311473
 -------------------------------------------------------------------
 Center     Atomic                   Forces (Hartrees/Bohr)
 Number     Number              X              Y              Z
 -------------------------------------------------------------------
      1        1          -0.106275828   -0.000000000    0.000000000
      2        1           0.000102142   -0.000000000   -0.000000000
      3        9           0.106173686    0.000000000   -0.000000000
 -------------------------------------------------------------------
 Cartesian Forces:  Max     0.106275828 RMS     0.050074848

 GradGradGradGradGradGradGradGradGradGradGradGradGradGradGradGradGradGrad
 Berny optimization.
 Search for a local minimum.
 Step number   1 out of a maximum of    2
 All quantities printed in internal units (Hartrees-Bohrs-Radians)
 Second derivative matrix not updated -- analytic derivatives used.
 The second derivative matrix:
                          X1        Y1        Z1        X2        Y2
           X1           1.02166
           Y1          -0.00000  -0.06615
           Z1          -0.00000  -0.00000  -0.06615
           X2           0.00013   0.00000  -0.00000  -0.00009
           Y2          -0.00000  -0.00000   0.00000   0.00000   0.00001
           Z2          -0.00000   0.00000  -0.00000   0.00000  -0.00000
           X3          -1.02180   0.00000   0.00000  -0.00005   0.00000
           Y3           0.00000   0.06615   0.00000  -0.00000  -0.00001
           Z3           0.00000   0.00000   0.06615   0.00000  -0.00000
                          Z2        X3        Y3        Z3
           Z2           0.00001
           X3           0.00000   1.02184
           Y3          -0.00000  -0.00000  -0.06614
           Z3          -0.00001  -0.00000  -0.00000  -0.06614
 ITU=  0
     Eigenvalues ---   -0.09501  -0.09501  -0.00012   1.67196
 Eigenvalue     1 is  -9.50D-02 should be greater than     0.000000 Eigenvector:
                          Y1        Y3        Y2        Z1        Z3
   1                    0.94713  -0.25026  -0.19636   0.03989  -0.01054
                          Z2        X1        X2        X3
   1                   -0.00827   0.00000  -0.00000  -0.00000
 Eigenvalue     2 is  -9.50D-02 should be greater than     0.000000 Eigenvector:
                          Z1        Z3        Z2        Y1        Y3
   1                    0.94713  -0.25026  -0.19636  -0.03989   0.01054
                          Y2        X2        X3        X1
   1                    0.00827   0.00000  -0.00000  -0.00000
 Eigenvalue     3 is  -1.22D-04 should be greater than     0.000000 Eigenvector:
                          X2        X1        X3        Z1        Y1
   1                    0.94280  -0.23579  -0.23567  -0.00000   0.00000
                          Z3        Z2        Y3        Y2
   1                    0.00000   0.00000  -0.00000  -0.00000
 Quadratic step=1.092D+00 exceeds max=3.000D-01 adjusted using Lamda=-3.370D-04.
 Angle between NR and scaled steps=  11.44 degrees.
 Angle between quadratic step and forces=  75.77 degrees.
 Linear search not attempted -- first point.
 B after Tr=    -0.026151    0.000000    0.000000
         Rot=    0.997365   -0.072540   -0.000000   -0.000000 Ang=  -8.32 deg.
 Variable       Old X    -DE/DX   Delta X   Delta X   Delta X     New X
                                 (Linear)    (Quad)   (Total)
    X1        0.00000  -0.10628   0.00000  -0.14321  -0.16936  -0.16936
    Y1        0.00000  -0.00000   0.00000  -0.00000  -0.00000  -0.00000
    Z1        0.00000   0.00000   0.00000   0.00000  -0.00000  -0.00000
    X2       -6.14161   0.00010   0.00000   0.26089   0.23474  -5.90687
    Y2        0.00000  -0.00000   0.00000   0.00000   0.00000   0.00000
    Z2        0.00000  -0.00000   0.00000  -0.00000   0.00000   0.00000
    X3        1.60627   0.10617   0.00000  -0.03923  -0.06538   1.54089
    Y3        0.00000   0.00000   0.00000   0.00000   0.00000   0.00000
    Z3        0.00000  -0.00000   0.00000  -0.00000   0.00000   0.00000
         Item               Value     Threshold  Converged?
 Maximum Force            0.106276     0.000450     NO 
 RMS     Force            0.050075     0.000300     NO 
 Maximum Displacement     0.234743     0.001800     NO 
 RMS     Displacement     0.098918     0.001200     NO 
 Predicted change in Energy=-5.566303D-03
 GradGradGradGradGradGradGradGradGradGradGradGradGradGradGradGradGradGrad


 ----------------------------------------------------------------------

 Electric dipole moment (input orientation):
 (Debye = 10**-18 statcoulomb cm , SI units = C m)
                  (au)            (Debye)         (10**-30 SI)
   Tot        0.719231D+00      0.182810D+01      0.609789D+01
   x         -0.719231D+00     -0.182810D+01     -0.609789D+01
   y          0.000000D+00      0.000000D+00      0.000000D+00
   z          0.000000D+00      0.000000D+00      0.000000D+00

 Dipole polarizability, Alpha (input orientation).
 (esu units = cm**3 , SI units = C**2 m**2 J**-1)
 Alpha(0;0):
               (au)            (10**-24 esu)      (10**-40 SI)
   iso        0.342870D+01      0.508082D+00      0.565317D+00
   aniso      0.296675D+01      0.439626D+00      0.489150D+00
   xx         0.540653D+01      0.801166D+00      0.891417D+00
   yx         0.000000D+00      0.000000D+00      0.000000D+00
   yy         0.243979D+01      0.361539D+00      0.402267D+00
   zx         0.000000D+00      0.000000D+00      0.000000D+00
   zy         0.000000D+00      0.000000D+00      0.000000D+00
   zz         0.243979D+01      0.361539D+00      0.402267D+00

 ----------------------------------------------------------------------

 Dipole orientation:
     1          0.00000000          0.00000000          0.00000000
     1          0.00000000         -0.00000000          6.14160990
     9         -0.00000000          0.00000000         -1.60626721

 Electric dipole moment (dipole orientation):
 (Debye = 10**-18 statcoulomb cm , SI units = C m)
                  (au)            (Debye)         (10**-30 SI)
   Tot        0.719231D+00      0.182810D+01      0.609789D+01
   x          0.000000D+00      0.000000D+00      0.000000D+00
   y          0.000000D+00      0.000000D+00      0.000000D+00
   z          0.719231D+00      0.182810D+01      0.609789D+01

 Dipole polarizability, Alpha (dipole orientation).
 (esu units = cm**3 , SI units = C**2 m**2 J**-1)
 Alpha(0;0):
               (au)            (10**-24 esu)      (10**-40 SI)
   iso        0.342870D+01      0.508082D+00      0.565317D+00
   aniso      0.296675D+01      0.439626D+00      0.489150D+00
   xx         0.243979D+01      0.361539D+00      0.402267D+00
   yx         0.000000D+00      0.000000D+00      0.000000D+00
   yy         0.243979D+01      0.361539D+00      0.402267D+00
   zx         0.000000D+00      0.000000D+00      0.000000D+00
   zy         0.000000D+00      0.000000D+00      0.000000D+00
   zz         0.540653D+01      0.801166D+00      0.891417D+00

 ----------------------------------------------------------------------
 Unable to Open any file for archive entry.
 1\1\GINC-DESKTOP-B3RIHJD\Freq\UB3LYP\6-311G(d,p)\F1H2(2)\GARYX\22-Aug-
 2025\0\\# sp b3lyp/6-311g** Force nosymm scf=(qc)\\Title Card Required
 \\0,2\H,0.,0.,0.\H,-3.25,0.,0.\F,0.85,0.,0.\\Version=ES64L-G16RevC.01\
 HF=-100.9655386\S2=0.750001\S2-1=0.\S2A=0.75\RMSD=2.722e-12\RMSF=5.007
 e-02\ZeroPoint=0.0120998\Thermal=0.0144603\ETot=-100.9510783\HTot=-100
 .9501341\GTot=-100.9734097\Dipole=-0.7192307,0.,0.\DipoleDeriv=0.32403
 72,0.,0.,0.,0.4373575,0.,0.,0.,0.4373575,-0.0085797,0.,0.,0.,0.0021584
 ,0.,0.,0.,0.0021584,-0.3154576,0.,0.,0.,-0.4395159,0.,0.,0.,-0.4395159
 \Polar=5.4065349,0.,2.4397887,0.,0.,2.4397887\Quadrupole=-0.4443989,0.
 2221995,0.2221995,0.,0.,0.\PG=C*V [C*(H1H1F1)]\NImag=3\\1.02166416,0.,
 -0.06614702,0.,0.,-0.06614702,0.00013372,0.,0.,-0.00008769,0.,-0.00000
 279,0.,0.,0.00001365,0.,0.,-0.00000279,0.,0.,0.00001365,-1.02179788,0.
 ,0.,-0.00004603,0.,0.,1.02184392,0.,0.06614980,0.,0.,-0.00001087,0.,0.
 ,-0.06613894,0.,0.,0.06614980,0.,0.,-0.00001087,0.,0.,-0.06613894\\0.1
 0627583,0.,0.,-0.00010214,0.,0.,-0.10617369,0.,0.\\\@
 The archive entry for this job was punched.


 TIMES HAVE CHANGED. IN THE BIBLE WHEN AN ASS
 SPOKE IT WAS CONSIDERED A MIRACLE.
 Job cpu time:       0 days  0 hours  0 minutes 13.3 seconds.
 Elapsed time:       0 days  0 hours  0 minutes  1.9 seconds.
 File lengths (MBytes):  RWF=      6 Int=      0 D2E=      0 Chk=      1 Scr=      1
 Normal termination of Gaussian 16 at Fri Aug 22 15:54:16 2025.
