 Entering Gaussian System, Link 0=g16
 Initial command:
 /home/garyx/gaussian/g16/l1.exe "/tmp/gaussian_scratch/Gau-230213.inp" -scrdir="/tmp/gaussian_scratch/"
 Entering Link 1 = /home/garyx/gaussian/g16/l1.exe PID=    230215.
  
 Copyright (c) 1988-2019, Gaussian, Inc.  All Rights Reserved.
  
 This is part of the Gaussian(R) 16 program.  It is based on
 the Gaussian(R) 09 system (copyright 2009, Gaussian, Inc.),
 the Gaussian(R) 03 system (copyright 2003, Gaussian, Inc.),
 the Gaussian(R) 98 system (copyright 1998, Gaussian, Inc.),
 the Gaussian(R) 94 system (copyright 1995, Gaussian, Inc.),
 the Gaussian 92(TM) system (copyright 1992, Gaussian, Inc.),
 the Gaussian 90(TM) system (copyright 1990, Gaussian, Inc.),
 the Gaussian 88(TM) system (copyright 1988, Gaussian, Inc.),
 the Gaussian 86(TM) system (copyright 1986, Carnegie Mellon
 University), and the Gaussian 82(TM) system (copyright 1983,
 Carnegie Mellon University). Gaussian is a federally registered
 trademark of Gaussian, Inc.
  
 This software contains proprietary and confidential information,
 including trade secrets, belonging to Gaussian, Inc.
  
 This software is provided under written license and may be
 used, copied, transmitted, or stored only in accord with that
 written license.
  
 The following legend is applicable only to US Government
 contracts under FAR:
  
                    RESTRICTED RIGHTS LEGEND
  
 Use, reproduction and disclosure by the US Government is
 subject to restrictions as set forth in subparagraphs (a)
 and (c) of the Commercial Computer Software - Restricted
 Rights clause in FAR 52.227-19.
  
 Gaussian, Inc.
 340 Quinnipiac St., Bldg. 40, Wallingford CT 06492
  
  
 ---------------------------------------------------------------
 Warning -- This program may not be used in any manner that
 competes with the business of Gaussian, Inc. or will provide
 assistance to any competitor of Gaussian, Inc.  The licensee
 of this program is prohibited from giving any competitor of
 Gaussian, Inc. access to this program.  By using this program,
 the user acknowledges that Gaussian, Inc. is engaged in the
 business of creating and licensing software in the field of
 computational chemistry and represents and warrants to the
 licensee that it is not a competitor of Gaussian, Inc. and that
 it will not use this program in any manner prohibited above.
 ---------------------------------------------------------------
  

 Cite this work as:
 Gaussian 16, Revision C.01,
 M. J. Frisch, G. W. Trucks, H. B. Schlegel, G. E. Scuseria, 
 M. A. Robb, J. R. Cheeseman, G. Scalmani, V. Barone, 
 G. A. Petersson, H. Nakatsuji, X. Li, M. Caricato, A. V. Marenich, 
 J. Bloino, B. G. Janesko, R. Gomperts, B. Mennucci, H. P. Hratchian, 
 J. V. Ortiz, A. F. Izmaylov, J. L. Sonnenberg, D. Williams-Young, 
 F. Ding, F. Lipparini, F. Egidi, J. Goings, B. Peng, A. Petrone, 
 T. Henderson, D. Ranasinghe, V. G. Zakrzewski, J. Gao, N. Rega, 
 G. Zheng, W. Liang, M. Hada, M. Ehara, K. Toyota, R. Fukuda, 
 J. Hasegawa, M. Ishida, T. Nakajima, Y. Honda, O. Kitao, H. Nakai, 
 T. Vreven, K. Throssell, J. A. Montgomery, Jr., J. E. Peralta, 
 F. Ogliaro, M. J. Bearpark, J. J. Heyd, E. N. Brothers, K. N. Kudin, 
 V. N. Staroverov, T. A. Keith, R. Kobayashi, J. Normand, 
 K. Raghavachari, A. P. Rendell, J. C. Burant, S. S. Iyengar, 
 J. Tomasi, M. Cossi, J. M. Millam, M. Klene, C. Adamo, R. Cammi, 
 J. W. Ochterski, R. L. Martin, K. Morokuma, O. Farkas, 
 J. B. Foresman, and D. J. Fox, Gaussian, Inc., Wallingford CT, 2019.
 
 ******************************************
 Gaussian 16:  ES64L-G16RevC.01  3-Jul-2019
                22-Aug-2025 
 ******************************************
 %mem=10GB
 %nprocs=8
 Will use up to    8 processors via shared memory.
 -----------------------------------------
 # sp b3lyp/6-311g** Force nosymm scf=(qc)
 -----------------------------------------
 1/10=4,30=1,38=1/1,3;
 2/12=2,15=1,17=6,18=5,40=1/2;
 3/5=4,6=6,7=101,11=2,25=1,30=1,71=2,74=-5,140=1/1,2,3;
 4//1;
 5/5=2,8=3,38=5,98=1/8;
 8/6=4,10=90,11=11/1;
 11/6=1,8=1,9=11,15=111,16=1,31=1/1,2,10;
 10/6=1,31=1/2;
 6/7=2,8=2,9=2,10=2,28=1/1;
 7/8=1,10=1,25=1,30=1/1,2,3,16;
 1/10=4,30=1/3;
 99//99;
 -------------------
 Title Card Required
 -------------------
 Symbolic Z-matrix:
 Charge =  0 Multiplicity = 2
 H                     0.        0.        0. 
 H                    -2.        0.        0. 
 F                     1.15      0.        0. 
 

 GradGradGradGradGradGradGradGradGradGradGradGradGradGradGradGradGradGrad
 Berny optimization.
 Initialization pass.
 Trust Radius=3.00D-01 FncErr=1.00D-07 GrdErr=1.00D-07 EigMax=2.50D+02 EigMin=1.00D-04
 Number of steps in this run=      2 maximum allowed number of steps=      2.
 GradGradGradGradGradGradGradGradGradGradGradGradGradGradGradGradGradGrad

                          Input orientation:                          
 ---------------------------------------------------------------------
 Center     Atomic      Atomic             Coordinates (Angstroms)
 Number     Number       Type             X           Y           Z
 ---------------------------------------------------------------------
      1          1           0        0.000000    0.000000    0.000000
      2          1           0       -2.000000    0.000000    0.000000
      3          9           0        1.150000    0.000000    0.000000
 ---------------------------------------------------------------------
                    Distance matrix (angstroms):
                    1          2          3
     1  H    0.000000
     2  H    2.000000   0.000000
     3  F    1.150000   3.150000   0.000000
 Symmetry turned off by external request.
 Stoichiometry    FH2(2)
 Framework group  C*V[C*(HHF)]
 Deg. of freedom     2
 Full point group                 C*V     NOp   4
 Rotational constants (GHZ):           0.0000000          48.4112852          48.4112852
 Standard basis: 6-311G(d,p) (5D, 7F)
    30 basis functions,    48 primitive gaussians,    31 cartesian basis functions
     6 alpha electrons        5 beta electrons
       nuclear repulsion energy         5.9179103619 Hartrees.
 NAtoms=    3 NActive=    3 NUniq=    3 SFac= 1.00D+00 NAtFMM=   60 NAOKFM=F Big=F
 Integral buffers will be    131072 words long.
 Raffenetti 2 integral format.
 Two-electron integral symmetry is turned off.
 One-electron integrals computed using PRISM.
 NBasis=    30 RedAO= T EigKep=  5.92D-02  NBF=    30
 NBsUse=    30 1.00D-06 EigRej= -1.00D+00 NBFU=    30
 ExpMin= 1.03D-01 ExpMax= 1.14D+04 ExpMxC= 1.72D+03 IAcc=3 IRadAn=         5 AccDes= 0.00D+00
 Harris functional with IExCor=  402 and IRadAn=       5 diagonalized for initial guess.
 HarFok:  IExCor=  402 AccDes= 0.00D+00 IRadAn=         5 IDoV= 1 UseB2=F ITyADJ=14
 ICtDFT=  3500011 ScaDFX=  1.000000  1.000000  1.000000  1.000000
 FoFCou: FMM=F IPFlag=           0 FMFlag=      100000 FMFlg1=           0
         NFxFlg=           0 DoJE=T BraDBF=F KetDBF=T FulRan=T
         wScrn=  0.000000 ICntrl=       500 IOpCl=  0 I1Cent=   200000004 NGrid=           0
         NMat0=    1 NMatS0=      1 NMatT0=    0 NMatD0=    1 NMtDS0=    0 NMtDT0=    0
 Symmetry not used in FoFCou.
 Initial guess <Sx>= 0.0000 <Sy>= 0.0000 <Sz>= 0.5000 <S**2>= 0.7500 S= 0.5000
 Keep R1 and R2 ints in memory in canonical form, NReq=7127049.
 Gradient too large for Newton-Raphson -- use scaled steepest descent instead.
 Gradient too large for Newton-Raphson -- use scaled steepest descent instead.
     Minimum is close to point  4 DX=  3.97D-02 DF= -6.12D-06 DXR=  4.23D-02 DFR=  1.79D-03 which will be used.
 Gradient too large for Newton-Raphson -- use scaled steepest descent instead.
     Accept linear search using points  1 and  2.
 LinEq1:  Iter=  0 NonCon=     1 RMS=6.00D-04 Max=7.35D-03 NDo=     1
 AX will form     1 AO Fock derivatives at one time.
 LinEq1:  Iter=  1 NonCon=     1 RMS=9.58D-05 Max=8.09D-04 NDo=     1
 LinEq1:  Iter=  2 NonCon=     1 RMS=7.83D-05 Max=9.41D-04 NDo=     1
 LinEq1:  Iter=  3 NonCon=     1 RMS=3.74D-05 Max=3.98D-04 NDo=     1
 LinEq1:  Iter=  4 NonCon=     1 RMS=1.27D-05 Max=1.22D-04 NDo=     1
 LinEq1:  Iter=  5 NonCon=     1 RMS=6.48D-07 Max=3.69D-06 NDo=     1
 LinEq1:  Iter=  6 NonCon=     1 RMS=6.15D-08 Max=3.57D-07 NDo=     1
 LinEq1:  Iter=  7 NonCon=     1 RMS=8.64D-09 Max=4.98D-08 NDo=     1
 LinEq1:  Iter=  8 NonCon=     0 RMS=1.46D-09 Max=7.88D-09 NDo=     1
 Linear equations converged to 1.640D-09 1.640D-08 after     8 iterations.
     Accept linear search using points  1 and  2.
     Minimum is close to point  2 DX= -3.16D-03 DF= -4.96D-10 DXR=  3.17D-03 DFR=  1.01D-05 which will be used.
 LinEq1:  Iter=  0 NonCon=     1 RMS=4.66D-06 Max=6.08D-05 NDo=     1
 LinEq1:  Iter=  1 NonCon=     1 RMS=1.14D-06 Max=9.24D-06 NDo=     1
 LinEq1:  Iter=  2 NonCon=     1 RMS=6.55D-07 Max=7.66D-06 NDo=     1
 LinEq1:  Iter=  3 NonCon=     1 RMS=2.03D-07 Max=1.86D-06 NDo=     1
 LinEq1:  Iter=  4 NonCon=     1 RMS=4.99D-08 Max=3.16D-07 NDo=     1
 LinEq1:  Iter=  5 NonCon=     1 RMS=4.65D-09 Max=3.46D-08 NDo=     1
 LinEq1:  Iter=  6 NonCon=     1 RMS=4.72D-10 Max=3.07D-09 NDo=     1
 LinEq1:  Iter=  7 NonCon=     0 RMS=6.48D-11 Max=3.63D-10 NDo=     1
 Linear equations converged to 3.712D-10 3.712D-09 after     7 iterations.
 SCF Done:  E(UB3LYP) =  -100.939241123     a.u. after    6 cycles
            Convg  =    0.6481D-08                    27 Fock formations.
              S**2 =  0.7505                  -V/T =  2.0037
 <Sx>= 0.0000 <Sy>= 0.0000 <Sz>= 0.5000 <S**2>= 0.7505 S= 0.5003
 <L.S>=  0.00000000000    
 Annihilation of the first spin contaminant:
 S**2 before annihilation     0.7505,   after     0.7500
 DoSCS=F DFT=T ScalE2(SS,OS)=  1.000000  1.000000
 Range of M.O.s used for correlation:     1    30
 NBasis=    30 NAE=     6 NBE=     5 NFC=     0 NFV=     0
 NROrb=     30 NOA=     6 NOB=     5 NVA=    24 NVB=    25
 Symmetrizing basis deriv contribution to polar:
 IMax=3 JMax=2 DiffMx= 0.00D+00
 G2DrvN: will do     4 centers at a time, making    1 passes.
 Calling FoFCou, ICntrl=  3107 FMM=F I1Cent=   0 AccDes= 0.00D+00.
 End of G2Drv F.D. properties file   721 does not exist.
 End of G2Drv F.D. properties file   722 does not exist.
 End of G2Drv F.D. properties file   788 does not exist.
          IDoAtm=111
          Differentiating once with respect to electric field.
                with respect to dipole field.
          Differentiating once with respect to nuclear coordinates.
 Keep R1 and R2 ints in memory in canonical form, NReq=7101519.
          There are    12 degrees of freedom in the 1st order CPHF.  IDoFFX=6 NUNeed=     3.
      9 vectors produced by pass  0 Test12= 2.24D-15 8.33D-09 XBig12= 2.00D+01 2.94D+00.
 AX will form     9 AO Fock derivatives at one time.
      9 vectors produced by pass  1 Test12= 2.24D-15 8.33D-09 XBig12= 3.70D+00 5.96D-01.
      9 vectors produced by pass  2 Test12= 2.24D-15 8.33D-09 XBig12= 7.58D-02 1.90D-01.
      9 vectors produced by pass  3 Test12= 2.24D-15 8.33D-09 XBig12= 2.11D-04 4.68D-03.
      9 vectors produced by pass  4 Test12= 2.24D-15 8.33D-09 XBig12= 2.37D-06 4.15D-04.
      4 vectors produced by pass  5 Test12= 2.24D-15 8.33D-09 XBig12= 1.11D-08 2.87D-05.
      2 vectors produced by pass  6 Test12= 2.24D-15 8.33D-09 XBig12= 4.31D-11 2.49D-06.
      1 vectors produced by pass  7 Test12= 2.24D-15 8.33D-09 XBig12= 3.63D-14 7.64D-08.
 InvSVY:  IOpt=1 It=  1 EMax= 2.22D-16
 Solved reduced A of dimension    52 with     9 vectors.
 Isotropic polarizability for W=    0.000000        6.35 Bohr**3.
 End of Minotr F.D. properties file   721 does not exist.
 End of Minotr F.D. properties file   722 does not exist.
 End of Minotr F.D. properties file   788 does not exist.

 **********************************************************************

            Population analysis using the SCF Density.

 **********************************************************************

 Alpha  occ. eigenvalues --  -24.63772  -1.12632  -0.48737  -0.37352  -0.37352
 Alpha  occ. eigenvalues --   -0.36496
 Alpha virt. eigenvalues --   -0.01277   0.23847   0.29623   0.93774   0.93774
 Alpha virt. eigenvalues --    1.00296   1.13034   1.20743   1.20743   1.35653
 Alpha virt. eigenvalues --    1.35653   1.46488   1.74331   2.14257   2.33072
 Alpha virt. eigenvalues --    3.83410   3.83410   3.89772   3.89772   4.48022
 Alpha virt. eigenvalues --    6.04004   6.04004   6.20956  66.65430
  Beta  occ. eigenvalues --  -24.63640  -1.12300  -0.48027  -0.37232  -0.37232
  Beta virt. eigenvalues --   -0.14004   0.01688   0.29349   0.34108   0.93778
  Beta virt. eigenvalues --    0.93778   1.00738   1.21778   1.34601   1.34601
  Beta virt. eigenvalues --    1.40653   1.40653   1.55368   1.75669   2.29180
  Beta virt. eigenvalues --    2.40762   3.83475   3.83475   3.90143   3.90143
  Beta virt. eigenvalues --    4.48449   6.04113   6.04113   6.21492  66.65558
          Condensed to atoms (all electrons):
               1          2          3
     1  H    0.430567   0.021396   0.218567
     2  H    0.021396   0.957342  -0.002766
     3  F    0.218567  -0.002766   9.137697
          Atomic-Atomic Spin Densities.
               1          2          3
     1  H   -0.016336   0.014154  -0.001579
     2  H    0.014154   0.954727  -0.003840
     3  F   -0.001579  -0.003840   0.044139
 Mulliken charges and spin densities:
               1          2
     1  H    0.329470  -0.003761
     2  H    0.024027   0.965041
     3  F   -0.353498   0.038720
 Sum of Mulliken charges =  -0.00000   1.00000
 Mulliken charges and spin densities with hydrogens summed into heavy atoms:
               1          2
     3  F   -0.000000   1.000000
 APT charges:
               1
     1  H    0.396159
     2  H   -0.005060
     3  F   -0.391099
 Sum of APT charges =  -0.00000
 APT charges with hydrogens summed into heavy atoms:
               1
     3  F   -0.000000
 Electronic spatial extent (au):  <R**2>=             73.3140
 Charge=             -0.0000 electrons
 Dipole moment (field-independent basis, Debye):
    X=             -2.4897    Y=              0.0000    Z=             -0.0000  Tot=              2.4897
 Quadrupole moment (field-independent basis, Debye-Ang):
   XX=             -8.1300   YY=             -7.0484   ZZ=             -7.0484
   XY=              0.0000   XZ=             -0.0000   YZ=             -0.0000
 Traceless Quadrupole moment (field-independent basis, Debye-Ang):
   XX=             -0.7211   YY=              0.3605   ZZ=              0.3605
   XY=              0.0000   XZ=             -0.0000   YZ=             -0.0000
 Octapole moment (field-independent basis, Debye-Ang**2):
  XXX=            -12.7505  YYY=             -0.0000  ZZZ=             -0.0000  XYY=             -3.3333
  XXY=              0.0000  XXZ=             -0.0000  XZZ=             -3.3333  YZZ=             -0.0000
  YYZ=             -0.0000  XYZ=             -0.0000
 Hexadecapole moment (field-independent basis, Debye-Ang**3):
 XXXX=            -71.6522 YYYY=             -5.0616 ZZZZ=             -5.0616 XXXY=              0.0000
 XXXZ=             -0.0000 YYYX=             -0.0000 YYYZ=             -0.0000 ZZZX=             -0.0000
 ZZZY=             -0.0000 XXYY=            -13.5714 XXZZ=            -13.5714 YYZZ=             -1.6872
 XXYZ=             -0.0000 YYXZ=             -0.0000 ZZXY=             -0.0000
 N-N= 5.917910361872D+00 E-N=-2.534995204879D+02  KE= 1.005635156788D+02
  Exact polarizability:      14.234       0.000       2.402      -0.000       0.000       2.402
 Approx polarizability:      17.013       0.000       2.370       0.000      -0.000       2.370
                          Isotropic Fermi Contact Couplings
        Atom                 a.u.       MegaHertz       Gauss      10(-4) cm-1
     1  H(1)              -0.00647     -28.92548     -10.32133      -9.64850
     2  H(1)               0.29141    1302.56021     464.78587     434.48732
     3  F(19)             -0.00889     -37.41537     -13.35073     -12.48042
 --------------------------------------------------------
       Center         ----  Spin Dipole Couplings  ----
                      3XX-RR        3YY-RR        3ZZ-RR
 --------------------------------------------------------
     1   Atom        0.049482     -0.024741     -0.024741
     2   Atom        0.001767     -0.000883     -0.000883
     3   Atom        0.281413     -0.140706     -0.140706
 --------------------------------------------------------
                        XY            XZ            YZ
 --------------------------------------------------------
     1   Atom        0.000000      0.000000      0.000000
     2   Atom        0.000000      0.000000      0.000000
     3   Atom        0.000000      0.000000      0.000000
 --------------------------------------------------------


 ---------------------------------------------------------------------------------
              Anisotropic Spin Dipole Couplings in Principal Axis System
 ---------------------------------------------------------------------------------

       Atom             a.u.   MegaHertz   Gauss  10(-4) cm-1        Axes

              Baa    -0.0247   -13.201    -4.710    -4.403 -0.0000  1.0000  0.0000
     1 H(1)   Bbb    -0.0247   -13.201    -4.710    -4.403  0.0000  0.0000  1.0000
              Bcc     0.0495    26.401     9.421     8.807  1.0000  0.0000  0.0000
 
              Baa    -0.0009    -0.471    -0.168    -0.157 -0.0000  1.0000  0.0000
     2 H(1)   Bbb    -0.0009    -0.471    -0.168    -0.157  0.0000  0.0000  1.0000
              Bcc     0.0018     0.943     0.336     0.314  1.0000  0.0000  0.0000
 
              Baa    -0.1407   -70.666   -25.215   -23.572 -0.0000  1.0000  0.0000
     3 F(19)  Bbb    -0.1407   -70.666   -25.215   -23.572  0.0000  0.0000  1.0000
              Bcc     0.2814   141.333    50.431    47.143  1.0000  0.0000  0.0000
 

 ---------------------------------------------------------------------------------

 Calling FoFJK, ICntrl=    100127 FMM=F ISym2X=0 I1Cent= 0 IOpClX= 1 NMat=1 NMatS=1 NMatT=0.
 Full mass-weighted force constant matrix:
 Low frequencies --- -294.0585    0.0017    0.0018    0.0018  124.5169  124.5169
 Low frequencies --- 1231.3661 1231.3661 1306.9577
 ******    1 imaginary frequencies (negative Signs) ****** 
 Diagonal vibrational polarizability:
        8.5014401       2.3023371       2.3023371
 Harmonic frequencies (cm**-1), IR intensities (KM/Mole), Raman scattering
 activities (A**4/AMU), depolarization ratios for plane and unpolarized
 incident light, reduced masses (AMU), force constants (mDyne/A),
 and normal coordinates:
                      1                      2                      3
                      A                      A                      A
 Frequencies --   -294.0585              1159.6342              1159.6342
 Red. masses --      1.0410                 1.0258                 1.0258
 Frc consts  --      0.0530                 0.8128                 0.8128
 IR Inten    --     17.5472               115.0477               115.0477
  Atom  AN      X      Y      Z        X      Y      Z        X      Y      Z
     1   1    -0.17  -0.00  -0.00    -0.00   0.94  -0.01     0.00   0.01   0.94
     2   1     0.98   0.00   0.00     0.00  -0.34   0.00     0.00  -0.00  -0.34
     3   9    -0.04   0.00   0.00    -0.00  -0.03   0.00    -0.00  -0.00  -0.03
                      4
                      A
 Frequencies --   1306.9577
 Red. masses --      1.0710
 Frc consts  --      1.0778
 IR Inten    --    192.9852
  Atom  AN      X      Y      Z
     1   1     0.99   0.00  -0.00
     2   1     0.13  -0.00   0.00
     3   9    -0.06  -0.00   0.00

 -------------------
 - Thermochemistry -
 -------------------
 Temperature   298.150 Kelvin.  Pressure   1.00000 Atm.
 Atom     1 has atomic number  1 and mass   1.00783
 Atom     2 has atomic number  1 and mass   1.00783
 Atom     3 has atomic number  9 and mass  18.99840
 Molecular mass:    21.01405 amu.
 Principal axes and moments of inertia in atomic units:
                           1         2         3
     Eigenvalues --     0.00000  37.27935  37.27935
           X            1.00000  -0.00000   0.00000
           Y            0.00000   1.00000   0.00000
           Z            0.00000   0.00000   1.00000
 This molecule is a prolate symmetric top.
 Rotational symmetry number  1.
 Rotational temperature (Kelvin)      2.32338
 Rotational constant (GHZ):          48.411285
    1 imaginary frequencies ignored.
 Zero-point vibrational energy      21689.6 (Joules/Mol)
                                    5.18395 (Kcal/Mol)
 Vibrational temperatures:   1668.45  1668.45  1880.42
          (Kelvin)
 
 Zero-point correction=                           0.008261 (Hartree/Particle)
 Thermal correction to Energy=                    0.010672
 Thermal correction to Enthalpy=                  0.011616
 Thermal correction to Gibbs Free Energy=        -0.011287
 Sum of electronic and zero-point Energies=           -100.930980
 Sum of electronic and thermal Energies=              -100.928569
 Sum of electronic and thermal Enthalpies=            -100.927625
 Sum of electronic and thermal Free Energies=         -100.950528
 
                     E (Thermal)             CV                S
                      KCal/Mol        Cal/Mol-Kelvin    Cal/Mol-Kelvin
 Total                    6.697              5.578             48.204
 Electronic               0.000              0.000              1.377
 Translational            0.889              2.981             35.068
 Rotational               0.592              1.987             11.634
 Vibrational              5.215              0.610              0.124
                       Q            Log10(Q)             Ln(Q)
 Total Bot       0.155498D+06          5.191725         11.954389
 Total V=0       0.980816D+09          8.991587         20.703895
 Vib (Bot)       0.160015D-03         -3.795839         -8.740242
 Vib (V=0)       0.100931D+01          0.004023          0.009264
 Electronic      0.200000D+01          0.301030          0.693147
 Translational   0.378633D+07          6.578219         15.146908
 Rotational      0.128326D+03          2.108315          4.854576
 -------------------------------------------------------------------
 Center     Atomic                   Forces (Hartrees/Bohr)
 Number     Number              X              Y              Z
 -------------------------------------------------------------------
      1        1           0.115791980    0.000000000   -0.000000000
      2        1           0.002050310   -0.000000000   -0.000000000
      3        9          -0.117842290   -0.000000000    0.000000000
 -------------------------------------------------------------------
 Cartesian Forces:  Max     0.117842290 RMS     0.055074487

 GradGradGradGradGradGradGradGradGradGradGradGradGradGradGradGradGradGrad
 Berny optimization.
 Search for a local minimum.
 Step number   1 out of a maximum of    2
 All quantities printed in internal units (Hartrees-Bohrs-Radians)
 Second derivative matrix not updated -- analytic derivatives used.
 The second derivative matrix:
                          X1        Y1        Z1        X2        Y2
           X1           0.06001
           Y1           0.00000   0.05497
           Z1          -0.00000   0.00000   0.05497
           X2           0.00824   0.00000   0.00000  -0.00211
           Y2           0.00000  -0.00062  -0.00000   0.00000   0.00057
           Z2           0.00000  -0.00000  -0.00062  -0.00000   0.00000
           X3          -0.06825  -0.00000   0.00000  -0.00613  -0.00000
           Y3          -0.00000  -0.05435  -0.00000  -0.00000   0.00005
           Z3           0.00000  -0.00000  -0.05435   0.00000   0.00000
                          Z2        X3        Y3        Z3
           Z2           0.00057
           X3          -0.00000   0.07438
           Y3           0.00000   0.00000   0.05431
           Z3           0.00005  -0.00000   0.00000   0.05431
 ITU=  0
     Eigenvalues ---   -0.00404   0.06871   0.06871   0.10928
 Eigenvalue     1 is  -4.04D-03 should be greater than     0.000000 Eigenvector:
                          X2        X1        X3        Y1        Y2
   1                    0.92406  -0.32619  -0.19929  -0.00000   0.00000
                          Y3        Z1        Z2        Z3
   1                    0.00000  -0.00000   0.00000   0.00000
 Quadratic step=3.355D+00 exceeds max=3.000D-01 adjusted using Lamda=-3.882D-01.
 Angle between NR and scaled steps=  60.05 degrees.
 Angle between quadratic step and forces=  25.50 degrees.
 Linear search not attempted -- first point.
 B after Tr=    -0.070891    0.000000    0.000000
         Rot=    0.976433    0.215820    0.000000    0.000000 Ang=  24.93 deg.
 Variable       Old X    -DE/DX   Delta X   Delta X   Delta X     New X
                                 (Linear)    (Quad)   (Total)
    X1        0.00000   0.11579   0.00000   0.27800   0.20711   0.20711
    Y1        0.00000   0.00000   0.00000   0.00000  -0.00000  -0.00000
    Z1        0.00000  -0.00000   0.00000  -0.00000  -0.00000  -0.00000
    X2       -3.77945   0.00205   0.00000   0.04101  -0.02988  -3.80933
    Y2        0.00000  -0.00000   0.00000  -0.00000  -0.00000  -0.00000
    Z2        0.00000  -0.00000   0.00000   0.00000  -0.00000  -0.00000
    X3        2.17319  -0.11784   0.00000  -0.10634  -0.17723   1.99596
    Y3        0.00000  -0.00000   0.00000  -0.00000   0.00000   0.00000
    Z3        0.00000   0.00000   0.00000   0.00000   0.00000   0.00000
         Item               Value     Threshold  Converged?
 Maximum Force            0.117842     0.000450     NO 
 RMS     Force            0.055074     0.000300     NO 
 Maximum Displacement     0.207106     0.001800     NO 
 RMS     Displacement     0.091406     0.001200     NO 
 Predicted change in Energy=-3.992914D-02
 GradGradGradGradGradGradGradGradGradGradGradGradGradGradGradGradGradGrad


 ----------------------------------------------------------------------

 Electric dipole moment (input orientation):
 (Debye = 10**-18 statcoulomb cm , SI units = C m)
                  (au)            (Debye)         (10**-30 SI)
   Tot        0.979542D+00      0.248975D+01      0.830490D+01
   x         -0.979542D+00     -0.248975D+01     -0.830490D+01
   y          0.000000D+00      0.000000D+00      0.000000D+00
   z          0.000000D+00      0.000000D+00      0.000000D+00

 Dipole polarizability, Alpha (input orientation).
 (esu units = cm**3 , SI units = C**2 m**2 J**-1)
 Alpha(0;0):
               (au)            (10**-24 esu)      (10**-40 SI)
   iso        0.634587D+01      0.940361D+00      0.104629D+01
   aniso      0.118323D+02      0.175336D+01      0.195088D+01
   xx         0.142340D+02      0.210927D+01      0.234688D+01
   yx         0.000000D+00      0.000000D+00      0.000000D+00
   yy         0.240178D+01      0.355908D+00      0.396001D+00
   zx         0.000000D+00      0.000000D+00      0.000000D+00
   zy         0.000000D+00      0.000000D+00      0.000000D+00
   zz         0.240178D+01      0.355908D+00      0.396001D+00

 ----------------------------------------------------------------------

 Dipole orientation:
     1          0.00000000          0.00000000          0.00000000
     1          0.00000000         -0.00000000          3.77945225
     9         -0.00000000          0.00000000         -2.17318504

 Electric dipole moment (dipole orientation):
 (Debye = 10**-18 statcoulomb cm , SI units = C m)
                  (au)            (Debye)         (10**-30 SI)
   Tot        0.979542D+00      0.248975D+01      0.830490D+01
   x          0.000000D+00      0.000000D+00      0.000000D+00
   y          0.000000D+00      0.000000D+00      0.000000D+00
   z          0.979542D+00      0.248975D+01      0.830490D+01

 Dipole polarizability, Alpha (dipole orientation).
 (esu units = cm**3 , SI units = C**2 m**2 J**-1)
 Alpha(0;0):
               (au)            (10**-24 esu)      (10**-40 SI)
   iso        0.634587D+01      0.940361D+00      0.104629D+01
   aniso      0.118323D+02      0.175336D+01      0.195088D+01
   xx         0.240178D+01      0.355908D+00      0.396001D+00
   yx         0.000000D+00      0.000000D+00      0.000000D+00
   yy         0.240178D+01      0.355908D+00      0.396001D+00
   zx         0.000000D+00      0.000000D+00      0.000000D+00
   zy         0.000000D+00      0.000000D+00      0.000000D+00
   zz         0.142340D+02      0.210927D+01      0.234688D+01

 ----------------------------------------------------------------------
 Unable to Open any file for archive entry.
 1\1\GINC-DESKTOP-B3RIHJD\Freq\UB3LYP\6-311G(d,p)\F1H2(2)\GARYX\22-Aug-
 2025\0\\# sp b3lyp/6-311g** Force nosymm scf=(qc)\\Title Card Required
 \\0,2\H,0.,0.,0.\H,-2.,0.,0.\F,1.15,0.,0.\\Version=ES64L-G16RevC.01\HF
 =-100.9392411\S2=0.750542\S2-1=0.\S2A=0.75\RMSD=3.952e-10\RMSF=5.507e-
 02\ZeroPoint=0.0082612\Thermal=0.0106719\ETot=-100.9285693\HTot=-100.9
 276251\GTot=-100.9505283\Dipole=-0.9795422,0.,0.\DipoleDeriv=0.452134,
 0.,0.,0.,0.3681717,0.,0.,0.,0.3681717,-0.0754697,0.,0.,0.,0.0301453,0.
 ,0.,0.,0.0301453,-0.3766643,0.,0.,0.,-0.3983169,0.,0.,0.,-0.3983169\Po
 lar=14.234043,0.,2.4017836,0.,0.,2.4017836\Quadrupole=-0.5361112,0.268
 0556,0.2680556,0.,0.,0.\PG=C*V [C*(H1H1F1)]\NImag=1\\0.06000980,0.,0.0
 5497082,0.,0.,0.05497082,0.00823886,0.,0.,-0.00210577,0.,-0.00061641,0
 .,0.,0.00056933,0.,0.,-0.00061641,0.,0.,0.00056933,-0.06824866,0.,0.,-
 0.00613309,0.,0.,0.07438176,0.,-0.05435441,0.,0.,0.00004708,0.,0.,0.05
 430733,0.,0.,-0.05435441,0.,0.,0.00004708,0.,0.,0.05430733\\-0.1157919
 8,0.,0.,-0.00205031,0.,0.,0.11784229,0.,0.\\\@
 The archive entry for this job was punched.


 A ROPE OVER THE TOP OF A FENCE HAS THE SAME LENGTH ON EACH SIDE.
 WEIGHS 1/3 POUND PER FOOT.  ON ONE END HANGS A MONKEY HOLDING A
 BANANA, AND ON THE OTHER END A WEIGHT EQUAL TO THE WEIGHT
 OF THE MONKEY.  THE BANANA WEIGHS TWO OUNCES PER INCH.
 THE ROPE IS AS LONG AS THE AGE OF THE MONKEY, 
 AND THE WEIGHT OF THE MONKEY (IN OUNCES) IS AS MUCH
 AS THE AGE OF THE MONKEY'S MOTHER.  THE COMBINED AGES OF MONKEY
 AND MOTHER ARE THIRTY YEARS.  HALF THE WEIGHT OF THE MONKEY,
  PLUS THE WEIGHT OF THE BANANA, IS ONE FOURTH AS MUCH AS THE WEIGHT
 OF THE WEIGHT AND THE ROPE.
 THE MONKEY'S MOTHER IS HALF AS OLD AS THE MONKEY WILL BE
 WHEN IT IS 3 TIMES AS OLD AS ITS MOTHER WAS WHEN
 SHE WAS HALF AS OLD AS THE MONKEY WILL BE WHEN IT IS
 AS OLD AS ITS MOTHER WILL BE WHEN SHE IS 4 TIMES AS
 OLD AS THE MONKEY WAS WHEN IT WAS TWICE AS OLD AS 
 ITS MOTHER WAS WHEN SHE WAS ONE THIRD AS OLD AS THE
 MONKEY WAS WHEN IT WAS AS OLD AS ITS MOTHER WAS WHEN 
 SHE WAS 3 TIMES AS OLD AS THE MONKEY WAS WHEN IT WAS AS OLD AS ITS
 MOTHER WAS WHEN SHE WAS 3 TIMES AS OLD AS THE MONKEY 
 WAS WHEN IT WAS ONE FOURTH WAS OLD AS IT IS NOW.

 HOW LONG IS THE BANANA?
 Job cpu time:       0 days  0 hours  0 minutes 13.8 seconds.
 Elapsed time:       0 days  0 hours  0 minutes  1.9 seconds.
 File lengths (MBytes):  RWF=      6 Int=      0 D2E=      0 Chk=      1 Scr=      1
 Normal termination of Gaussian 16 at Fri Aug 22 16:07:44 2025.
