 Entering Gaussian System, Link 0=g16
 Initial command:
 /home/garyx/gaussian/g16/l1.exe "/tmp/gaussian_scratch/Gau-1172967.inp" -scrdir="/tmp/gaussian_scratch/"
 Entering Link 1 = /home/garyx/gaussian/g16/l1.exe PID=   1172969.
  
 Copyright (c) 1988-2019, Gaussian, Inc.  All Rights Reserved.
  
 This is part of the Gaussian(R) 16 program.  It is based on
 the Gaussian(R) 09 system (copyright 2009, Gaussian, Inc.),
 the Gaussian(R) 03 system (copyright 2003, Gaussian, Inc.),
 the Gaussian(R) 98 system (copyright 1998, Gaussian, Inc.),
 the Gaussian(R) 94 system (copyright 1995, Gaussian, Inc.),
 the Gaussian 92(TM) system (copyright 1992, Gaussian, Inc.),
 the Gaussian 90(TM) system (copyright 1990, Gaussian, Inc.),
 the Gaussian 88(TM) system (copyright 1988, Gaussian, Inc.),
 the Gaussian 86(TM) system (copyright 1986, Carnegie Mellon
 University), and the Gaussian 82(TM) system (copyright 1983,
 Carnegie Mellon University). Gaussian is a federally registered
 trademark of Gaussian, Inc.
  
 This software contains proprietary and confidential information,
 including trade secrets, belonging to Gaussian, Inc.
  
 This software is provided under written license and may be
 used, copied, transmitted, or stored only in accord with that
 written license.
  
 The following legend is applicable only to US Government
 contracts under FAR:
  
                    RESTRICTED RIGHTS LEGEND
  
 Use, reproduction and disclosure by the US Government is
 subject to restrictions as set forth in subparagraphs (a)
 and (c) of the Commercial Computer Software - Restricted
 Rights clause in FAR 52.227-19.
  
 Gaussian, Inc.
 340 Quinnipiac St., Bldg. 40, Wallingford CT 06492
  
  
 ---------------------------------------------------------------
 Warning -- This program may not be used in any manner that
 competes with the business of Gaussian, Inc. or will provide
 assistance to any competitor of Gaussian, Inc.  The licensee
 of this program is prohibited from giving any competitor of
 Gaussian, Inc. access to this program.  By using this program,
 the user acknowledges that Gaussian, Inc. is engaged in the
 business of creating and licensing software in the field of
 computational chemistry and represents and warrants to the
 licensee that it is not a competitor of Gaussian, Inc. and that
 it will not use this program in any manner prohibited above.
 ---------------------------------------------------------------
  

 Cite this work as:
 Gaussian 16, Revision C.01,
 M. J. Frisch, G. W. Trucks, H. B. Schlegel, G. E. Scuseria, 
 M. A. Robb, J. R. Cheeseman, G. Scalmani, V. Barone, 
 G. A. Petersson, H. Nakatsuji, X. Li, M. Caricato, A. V. Marenich, 
 J. Bloino, B. G. Janesko, R. Gomperts, B. Mennucci, H. P. Hratchian, 
 J. V. Ortiz, A. F. Izmaylov, J. L. Sonnenberg, D. Williams-Young, 
 F. Ding, F. Lipparini, F. Egidi, J. Goings, B. Peng, A. Petrone, 
 T. Henderson, D. Ranasinghe, V. G. Zakrzewski, J. Gao, N. Rega, 
 G. Zheng, W. Liang, M. Hada, M. Ehara, K. Toyota, R. Fukuda, 
 J. Hasegawa, M. Ishida, T. Nakajima, Y. Honda, O. Kitao, H. Nakai, 
 T. Vreven, K. Throssell, J. A. Montgomery, Jr., J. E. Peralta, 
 F. Ogliaro, M. J. Bearpark, J. J. Heyd, E. N. Brothers, K. N. Kudin, 
 V. N. Staroverov, T. A. Keith, R. Kobayashi, J. Normand, 
 K. Raghavachari, A. P. Rendell, J. C. Burant, S. S. Iyengar, 
 J. Tomasi, M. Cossi, J. M. Millam, M. Klene, C. Adamo, R. Cammi, 
 J. W. Ochterski, R. L. Martin, K. Morokuma, O. Farkas, 
 J. B. Foresman, and D. J. Fox, Gaussian, Inc., Wallingford CT, 2019.
 
 ******************************************
 Gaussian 16:  ES64L-G16RevC.01  3-Jul-2019
                23-Aug-2025 
 ******************************************
 %mem=10GB
 %nprocs=8
 Will use up to    8 processors via shared memory.
 -----------------------------------------
 # sp b3lyp/6-311g** Force nosymm scf=(qc)
 -----------------------------------------
 1/10=4,30=1,38=1/1,3;
 2/12=2,15=1,17=6,18=5,40=1/2;
 3/5=4,6=6,7=101,11=2,25=1,30=1,71=2,74=-5,140=1/1,2,3;
 4//1;
 5/5=2,8=3,38=5,98=1/8;
 8/6=4,10=90,11=11/1;
 11/6=1,8=1,9=11,15=111,16=1,31=1/1,2,10;
 10/6=1,31=1/2;
 6/7=2,8=2,9=2,10=2,28=1/1;
 7/8=1,10=1,25=1,30=1/1,2,3,16;
 1/10=4,30=1/3;
 99//99;
 -------------------
 Title Card Required
 -------------------
 Symbolic Z-matrix:
 Charge =  0 Multiplicity = 2
 H                     0.        0.        0. 
 H                    -1.75      0.        0. 
 F                     3.95      0.        0. 
 

 GradGradGradGradGradGradGradGradGradGradGradGradGradGradGradGradGradGrad
 Berny optimization.
 Initialization pass.
 Trust Radius=3.00D-01 FncErr=1.00D-07 GrdErr=1.00D-07 EigMax=2.50D+02 EigMin=1.00D-04
 Number of steps in this run=      2 maximum allowed number of steps=      2.
 GradGradGradGradGradGradGradGradGradGradGradGradGradGradGradGradGradGrad

                          Input orientation:                          
 ---------------------------------------------------------------------
 Center     Atomic      Atomic             Coordinates (Angstroms)
 Number     Number       Type             X           Y           Z
 ---------------------------------------------------------------------
      1          1           0        0.000000    0.000000    0.000000
      2          1           0       -1.750000    0.000000    0.000000
      3          9           0        3.950000    0.000000    0.000000
 ---------------------------------------------------------------------
                    Distance matrix (angstroms):
                    1          2          3
     1  H    0.000000
     2  H    1.750000   0.000000
     3  F    3.950000   5.700000   0.000000
 Symmetry turned off by external request.
 Stoichiometry    FH2(2)
 Framework group  C*V[C*(HHF)]
 Deg. of freedom     2
 Full point group                 C*V     NOp   4
 Rotational constants (GHZ):           0.0000000          11.4943081          11.4943081
 Standard basis: 6-311G(d,p) (5D, 7F)
    30 basis functions,    48 primitive gaussians,    31 cartesian basis functions
     6 alpha electrons        5 beta electrons
       nuclear repulsion energy         2.3436501697 Hartrees.
 NAtoms=    3 NActive=    3 NUniq=    3 SFac= 1.00D+00 NAtFMM=   60 NAOKFM=F Big=F
 Integral buffers will be    131072 words long.
 Raffenetti 2 integral format.
 Two-electron integral symmetry is turned off.
 One-electron integrals computed using PRISM.
 NBasis=    30 RedAO= T EigKep=  7.97D-02  NBF=    30
 NBsUse=    30 1.00D-06 EigRej= -1.00D+00 NBFU=    30
 ExpMin= 1.03D-01 ExpMax= 1.14D+04 ExpMxC= 1.72D+03 IAcc=3 IRadAn=         5 AccDes= 0.00D+00
 Harris functional with IExCor=  402 and IRadAn=       5 diagonalized for initial guess.
 HarFok:  IExCor=  402 AccDes= 0.00D+00 IRadAn=         5 IDoV= 1 UseB2=F ITyADJ=14
 ICtDFT=  3500011 ScaDFX=  1.000000  1.000000  1.000000  1.000000
 FoFCou: FMM=F IPFlag=           0 FMFlag=      100000 FMFlg1=           0
         NFxFlg=           0 DoJE=T BraDBF=F KetDBF=T FulRan=T
         wScrn=  0.000000 ICntrl=       500 IOpCl=  0 I1Cent=   200000004 NGrid=           0
         NMat0=    1 NMatS0=      1 NMatT0=    0 NMatD0=    1 NMtDS0=    0 NMtDT0=    0
 Symmetry not used in FoFCou.
 Initial guess <Sx>= 0.0000 <Sy>= 0.0000 <Sz>= 0.5000 <S**2>= 0.7500 S= 0.5000
 Keep R1 and R2 ints in memory in canonical form, NReq=7127049.
 Gradient too large for Newton-Raphson -- use scaled steepest descent instead.
  Beta Gap=    -0.646 HL deriv= 1.73D-15 Rot set to   3.60D-01
 Gradient too large for Newton-Raphson -- use scaled steepest descent instead.
     Accept linear search using points  4 and  5.
 Gradient too large for Newton-Raphson -- use scaled steepest descent instead.
     Minimum is close to point  2 DX=  1.19D-02 DF= -4.90D-06 DXR=  1.46D-02 DFR=  2.14D-04 which will be used.
 Gradient too large for Newton-Raphson -- use scaled steepest descent instead.
 Gradient too large for Newton-Raphson -- use scaled steepest descent instead.
     Accept linear search using points  1 and  2.
 Gradient too large for Newton-Raphson -- use scaled steepest descent instead.
     Minimum is close to point  3 DX=  4.99D-03 DF= -6.33D-07 DXR=  3.82D-03 DFR=  1.45D-05 which will be used.
 Gradient too large for Newton-Raphson -- use scaled steepest descent instead.
     Minimum is close to point  2 DX=  9.27D-03 DF= -1.68D-05 DXR=  1.82D-02 DFR=  3.32D-04 which will be used.
 Gradient too large for Newton-Raphson -- use scaled steepest descent instead.
     Accept linear search using points  1 and  2.
 Gradient too large for Newton-Raphson -- use scaled steepest descent instead.
     Accept linear search using points  2 and  3.
 Gradient too large for Newton-Raphson -- use scaled steepest descent instead.
     Accept linear search using points  1 and  2.
 Gradient too large for Newton-Raphson -- use scaled steepest descent instead.
     Accept linear search using points  3 and  4.
     Minimum is close to point  4 DX= -1.02D-01 DF= -1.23D-06 DXR=  5.09D-02 DFR=  2.61D-03 which will be used.
 Gradient too large for Newton-Raphson -- use scaled steepest descent instead.
     Accept linear search using points  1 and  2.
 Gradient too large for Newton-Raphson -- use scaled steepest descent instead.
 Gradient too large for Newton-Raphson -- use scaled steepest descent instead.
     Accept linear search using points  1 and  2.
 Gradient too large for Newton-Raphson -- use scaled steepest descent instead.
 Gradient too large for Newton-Raphson -- use scaled steepest descent instead.
     Accept linear search using points  1 and  2.
 LinEq1:  Iter=  0 NonCon=     1 RMS=2.49D-03 Max=3.73D-02 NDo=     1
 AX will form     1 AO Fock derivatives at one time.
 LinEq1:  Iter=  1 NonCon=     1 RMS=2.04D-03 Max=3.06D-02 NDo=     1
 LinEq1:  Iter=  2 NonCon=     1 RMS=2.07D-04 Max=1.99D-03 NDo=     1
 LinEq1:  Iter=  3 NonCon=     1 RMS=2.94D-05 Max=3.67D-04 NDo=     1
 LinEq1:  Iter=  4 NonCon=     1 RMS=4.33D-06 Max=3.58D-05 NDo=     1
 LinEq1:  Iter=  5 NonCon=     1 RMS=9.33D-07 Max=6.03D-06 NDo=     1
 LinEq1:  Iter=  6 NonCon=     1 RMS=4.33D-07 Max=5.51D-06 NDo=     1
 LinEq1:  Iter=  7 NonCon=     1 RMS=2.01D-07 Max=1.92D-06 NDo=     1
 LinEq1:  Iter=  8 NonCon=     1 RMS=1.03D-08 Max=8.25D-08 NDo=     1
 LinEq1:  Iter=  9 NonCon=     1 RMS=1.53D-09 Max=1.74D-08 NDo=     1
 LinEq1:  Iter= 10 NonCon=     0 RMS=2.03D-10 Max=1.56D-09 NDo=     1
 Linear equations converged to 1.640D-09 1.640D-08 after    10 iterations.
     Accept linear search using points  1 and  2.
 LinEq1:  Iter=  0 NonCon=     1 RMS=4.50D-04 Max=5.01D-03 NDo=     1
 LinEq1:  Iter=  1 NonCon=     1 RMS=1.18D-04 Max=1.09D-03 NDo=     1
 LinEq1:  Iter=  2 NonCon=     1 RMS=2.77D-05 Max=2.61D-04 NDo=     1
 LinEq1:  Iter=  3 NonCon=     1 RMS=6.00D-06 Max=4.90D-05 NDo=     1
 LinEq1:  Iter=  4 NonCon=     1 RMS=9.24D-07 Max=8.10D-06 NDo=     1
 LinEq1:  Iter=  5 NonCon=     1 RMS=3.08D-07 Max=3.92D-06 NDo=     1
 LinEq1:  Iter=  6 NonCon=     1 RMS=2.34D-07 Max=1.67D-06 NDo=     1
 LinEq1:  Iter=  7 NonCon=     1 RMS=6.60D-08 Max=5.70D-07 NDo=     1
 LinEq1:  Iter=  8 NonCon=     1 RMS=5.49D-09 Max=4.44D-08 NDo=     1
 LinEq1:  Iter=  9 NonCon=     0 RMS=1.35D-09 Max=1.43D-08 NDo=     1
 Linear equations converged to 1.640D-09 1.640D-08 after     9 iterations.
     Accept linear search using points  1 and  2.
     Minimum is close to point  2 DX= -3.22D-03 DF= -9.77D-11 DXR=  3.23D-03 DFR=  1.05D-05 which will be used.
 LinEq1:  Iter=  0 NonCon=     1 RMS=4.96D-06 Max=4.55D-05 NDo=     1
 LinEq1:  Iter=  1 NonCon=     1 RMS=1.50D-06 Max=1.39D-05 NDo=     1
 LinEq1:  Iter=  2 NonCon=     1 RMS=6.35D-07 Max=8.80D-06 NDo=     1
 LinEq1:  Iter=  3 NonCon=     1 RMS=3.35D-07 Max=3.85D-06 NDo=     1
 LinEq1:  Iter=  4 NonCon=     1 RMS=7.71D-08 Max=7.76D-07 NDo=     1
 LinEq1:  Iter=  5 NonCon=     1 RMS=3.06D-08 Max=3.53D-07 NDo=     1
 LinEq1:  Iter=  6 NonCon=     1 RMS=5.18D-09 Max=3.60D-08 NDo=     1
 LinEq1:  Iter=  7 NonCon=     1 RMS=2.02D-09 Max=1.41D-08 NDo=     1
 LinEq1:  Iter=  8 NonCon=     0 RMS=7.83D-10 Max=7.27D-09 NDo=     1
 Linear equations converged to 1.640D-09 1.640D-08 after     8 iterations.
     Accept linear search using points  1 and  2.
 LinEq1:  Iter=  0 NonCon=     1 RMS=3.51D-06 Max=2.65D-05 NDo=     1
 LinEq1:  Iter=  1 NonCon=     1 RMS=1.40D-06 Max=1.32D-05 NDo=     1
 LinEq1:  Iter=  2 NonCon=     1 RMS=6.36D-07 Max=4.95D-06 NDo=     1
 LinEq1:  Iter=  3 NonCon=     1 RMS=1.96D-07 Max=1.69D-06 NDo=     1
 LinEq1:  Iter=  4 NonCon=     1 RMS=9.38D-08 Max=1.13D-06 NDo=     1
 LinEq1:  Iter=  5 NonCon=     1 RMS=3.18D-08 Max=1.69D-07 NDo=     1
 LinEq1:  Iter=  6 NonCon=     1 RMS=1.14D-08 Max=1.50D-07 NDo=     1
 LinEq1:  Iter=  7 NonCon=     1 RMS=6.68D-09 Max=9.00D-08 NDo=     1
 LinEq1:  Iter=  8 NonCon=     1 RMS=2.01D-09 Max=1.32D-08 NDo=     1
 LinEq1:  Iter=  9 NonCon=     0 RMS=1.42D-10 Max=1.42D-09 NDo=     1
 Linear equations converged to 1.457D-09 1.457D-08 after     9 iterations.
 Incorrect curvature in search direction -- initial direction reversed.
 LinEq1:  Iter=  0 NonCon=     1 RMS=3.86D-06 Max=2.89D-05 NDo=     1
 LinEq1:  Iter=  1 NonCon=     1 RMS=1.56D-06 Max=1.39D-05 NDo=     1
 LinEq1:  Iter=  2 NonCon=     1 RMS=6.87D-07 Max=5.75D-06 NDo=     1
 LinEq1:  Iter=  3 NonCon=     1 RMS=2.18D-07 Max=1.97D-06 NDo=     1
 LinEq1:  Iter=  4 NonCon=     1 RMS=1.02D-07 Max=1.30D-06 NDo=     1
 LinEq1:  Iter=  5 NonCon=     1 RMS=3.42D-08 Max=1.95D-07 NDo=     1
 LinEq1:  Iter=  6 NonCon=     1 RMS=8.15D-09 Max=1.02D-07 NDo=     1
 LinEq1:  Iter=  7 NonCon=     1 RMS=5.39D-09 Max=7.40D-08 NDo=     1
 LinEq1:  Iter=  8 NonCon=     1 RMS=1.78D-09 Max=1.39D-08 NDo=     1
 LinEq1:  Iter=  9 NonCon=     0 RMS=1.41D-10 Max=9.29D-10 NDo=     1
 Linear equations converged to 1.640D-09 1.640D-08 after     9 iterations.
 LinEq1:  Iter=  0 NonCon=     1 RMS=3.93D-06 Max=2.92D-05 NDo=     1
 LinEq1:  Iter=  1 NonCon=     1 RMS=1.50D-06 Max=1.30D-05 NDo=     1
 LinEq1:  Iter=  2 NonCon=     1 RMS=6.72D-07 Max=5.49D-06 NDo=     1
 LinEq1:  Iter=  3 NonCon=     1 RMS=2.42D-07 Max=2.12D-06 NDo=     1
 LinEq1:  Iter=  4 NonCon=     1 RMS=1.08D-07 Max=1.32D-06 NDo=     1
 LinEq1:  Iter=  5 NonCon=     1 RMS=3.76D-08 Max=2.35D-07 NDo=     1
 LinEq1:  Iter=  6 NonCon=     1 RMS=1.12D-08 Max=1.50D-07 NDo=     1
 LinEq1:  Iter=  7 NonCon=     1 RMS=7.14D-09 Max=9.27D-08 NDo=     1
 LinEq1:  Iter=  8 NonCon=     1 RMS=1.93D-09 Max=1.30D-08 NDo=     1
 LinEq1:  Iter=  9 NonCon=     0 RMS=1.97D-10 Max=1.12D-09 NDo=     1
 Linear equations converged to 1.640D-09 1.640D-08 after     9 iterations.
 LinEq1:  Iter=  0 NonCon=     1 RMS=4.07D-06 Max=2.79D-05 NDo=     1
 LinEq1:  Iter=  1 NonCon=     1 RMS=1.38D-06 Max=1.01D-05 NDo=     1
 LinEq1:  Iter=  2 NonCon=     1 RMS=6.17D-07 Max=4.91D-06 NDo=     1
 LinEq1:  Iter=  3 NonCon=     1 RMS=2.41D-07 Max=2.04D-06 NDo=     1
 LinEq1:  Iter=  4 NonCon=     1 RMS=1.08D-07 Max=1.28D-06 NDo=     1
 LinEq1:  Iter=  5 NonCon=     1 RMS=3.66D-08 Max=2.35D-07 NDo=     1
 LinEq1:  Iter=  6 NonCon=     1 RMS=1.19D-08 Max=1.49D-07 NDo=     1
 LinEq1:  Iter=  7 NonCon=     1 RMS=6.97D-09 Max=8.88D-08 NDo=     1
 LinEq1:  Iter=  8 NonCon=     1 RMS=2.51D-09 Max=1.73D-08 NDo=     1
 LinEq1:  Iter=  9 NonCon=     0 RMS=4.18D-10 Max=3.00D-09 NDo=     1
 Linear equations converged to 1.640D-09 1.640D-08 after     9 iterations.
     Accept linear search using points  1 and  2.
 LinEq1:  Iter=  0 NonCon=     1 RMS=3.04D-06 Max=1.89D-05 NDo=     1
 LinEq1:  Iter=  1 NonCon=     1 RMS=5.69D-07 Max=3.88D-06 NDo=     1
 LinEq1:  Iter=  2 NonCon=     1 RMS=2.20D-07 Max=2.05D-06 NDo=     1
 LinEq1:  Iter=  3 NonCon=     1 RMS=1.37D-07 Max=1.43D-06 NDo=     1
 LinEq1:  Iter=  4 NonCon=     1 RMS=6.37D-08 Max=4.15D-07 NDo=     1
 LinEq1:  Iter=  5 NonCon=     1 RMS=1.40D-08 Max=1.19D-07 NDo=     1
 LinEq1:  Iter=  6 NonCon=     1 RMS=2.59D-09 Max=1.78D-08 NDo=     1
 LinEq1:  Iter=  7 NonCon=     1 RMS=1.21D-09 Max=8.86D-09 NDo=     1
 LinEq1:  Iter=  8 NonCon=     0 RMS=4.92D-10 Max=4.09D-09 NDo=     1
 Linear equations converged to 1.070D-09 1.070D-08 after     8 iterations.
     Accept linear search using points  1 and  2.
     Minimum is close to point  2 DX= -8.02D-03 DF= -3.84D-13 DXR=  8.08D-03 DFR=  6.47D-05 which will be used.
 LinEq1:  Iter=  0 NonCon=     1 RMS=1.44D-06 Max=1.19D-05 NDo=     1
 LinEq1:  Iter=  1 NonCon=     1 RMS=9.13D-07 Max=8.84D-06 NDo=     1
 LinEq1:  Iter=  2 NonCon=     1 RMS=3.95D-07 Max=3.21D-06 NDo=     1
 LinEq1:  Iter=  3 NonCon=     1 RMS=1.28D-07 Max=1.01D-06 NDo=     1
 LinEq1:  Iter=  4 NonCon=     1 RMS=6.02D-08 Max=4.99D-07 NDo=     1
 LinEq1:  Iter=  5 NonCon=     1 RMS=1.13D-08 Max=9.16D-08 NDo=     1
 LinEq1:  Iter=  6 NonCon=     1 RMS=4.67D-09 Max=4.12D-08 NDo=     1
 LinEq1:  Iter=  7 NonCon=     1 RMS=2.07D-09 Max=1.65D-08 NDo=     1
 LinEq1:  Iter=  8 NonCon=     0 RMS=3.02D-10 Max=1.84D-09 NDo=     1
 Linear equations converged to 4.691D-10 4.691D-09 after     8 iterations.
 LinEq1:  Iter=  0 NonCon=     1 RMS=7.35D-07 Max=3.94D-06 NDo=     1
 LinEq1:  Iter=  1 NonCon=     1 RMS=1.60D-07 Max=1.13D-06 NDo=     1
 LinEq1:  Iter=  2 NonCon=     1 RMS=8.61D-08 Max=8.16D-07 NDo=     1
 LinEq1:  Iter=  3 NonCon=     1 RMS=6.17D-08 Max=4.58D-07 NDo=     1
 LinEq1:  Iter=  4 NonCon=     1 RMS=2.24D-08 Max=1.61D-07 NDo=     1
 LinEq1:  Iter=  5 NonCon=     1 RMS=5.78D-09 Max=5.00D-08 NDo=     1
 LinEq1:  Iter=  6 NonCon=     1 RMS=1.49D-09 Max=1.02D-08 NDo=     1
 LinEq1:  Iter=  7 NonCon=     1 RMS=5.71D-10 Max=3.93D-09 NDo=     1
 LinEq1:  Iter=  8 NonCon=     0 RMS=2.15D-10 Max=1.59D-09 NDo=     1
 Linear equations converged to 4.038D-10 4.038D-09 after     8 iterations.
 LinEq1:  Iter=  0 NonCon=     1 RMS=1.67D-06 Max=1.24D-05 NDo=     1
 LinEq1:  Iter=  1 NonCon=     1 RMS=7.00D-07 Max=5.54D-06 NDo=     1
 LinEq1:  Iter=  2 NonCon=     1 RMS=2.86D-07 Max=1.94D-06 NDo=     1
 LinEq1:  Iter=  3 NonCon=     1 RMS=1.59D-07 Max=1.59D-06 NDo=     1
 LinEq1:  Iter=  4 NonCon=     1 RMS=6.53D-08 Max=5.18D-07 NDo=     1
 LinEq1:  Iter=  5 NonCon=     1 RMS=1.29D-08 Max=1.09D-07 NDo=     1
 LinEq1:  Iter=  6 NonCon=     1 RMS=4.30D-09 Max=6.07D-08 NDo=     1
 LinEq1:  Iter=  7 NonCon=     1 RMS=2.59D-09 Max=3.39D-08 NDo=     1
 LinEq1:  Iter=  8 NonCon=     1 RMS=6.98D-10 Max=4.23D-09 NDo=     1
 LinEq1:  Iter=  9 NonCon=     0 RMS=1.16D-10 Max=5.05D-10 NDo=     1
 Linear equations converged to 6.007D-10 6.007D-09 after     9 iterations.
 LinEq1:  Iter=  0 NonCon=     1 RMS=3.66D-07 Max=1.58D-06 NDo=     1
 LinEq1:  Iter=  1 NonCon=     1 RMS=1.06D-07 Max=9.36D-07 NDo=     1
 LinEq1:  Iter=  2 NonCon=     1 RMS=4.74D-08 Max=4.52D-07 NDo=     1
 LinEq1:  Iter=  3 NonCon=     1 RMS=1.73D-08 Max=2.02D-07 NDo=     1
 LinEq1:  Iter=  4 NonCon=     1 RMS=1.00D-08 Max=1.29D-07 NDo=     1
 LinEq1:  Iter=  5 NonCon=     1 RMS=3.01D-09 Max=2.50D-08 NDo=     1
 LinEq1:  Iter=  6 NonCon=     1 RMS=7.45D-10 Max=7.42D-09 NDo=     1
 LinEq1:  Iter=  7 NonCon=     0 RMS=2.09D-10 Max=1.81D-09 NDo=     1
 Linear equations converged to 2.093D-10 2.093D-09 after     7 iterations.
 LinEq1:  Iter=  0 NonCon=     1 RMS=1.22D-06 Max=1.11D-05 NDo=     1
 LinEq1:  Iter=  1 NonCon=     1 RMS=5.89D-07 Max=5.45D-06 NDo=     1
 LinEq1:  Iter=  2 NonCon=     1 RMS=2.53D-07 Max=1.69D-06 NDo=     1
 LinEq1:  Iter=  3 NonCon=     1 RMS=1.15D-07 Max=1.03D-06 NDo=     1
 LinEq1:  Iter=  4 NonCon=     1 RMS=5.26D-08 Max=4.02D-07 NDo=     1
 LinEq1:  Iter=  5 NonCon=     1 RMS=1.63D-08 Max=1.77D-07 NDo=     1
 LinEq1:  Iter=  6 NonCon=     1 RMS=6.84D-09 Max=8.23D-08 NDo=     1
 LinEq1:  Iter=  7 NonCon=     1 RMS=3.08D-09 Max=2.08D-08 NDo=     1
 LinEq1:  Iter=  8 NonCon=     0 RMS=2.79D-10 Max=2.35D-09 NDo=     1
 Linear equations converged to 4.292D-10 4.292D-09 after     8 iterations.
 LinEq1:  Iter=  0 NonCon=     1 RMS=9.40D-07 Max=7.52D-06 NDo=     1
 LinEq1:  Iter=  1 NonCon=     1 RMS=3.54D-07 Max=2.86D-06 NDo=     1
 LinEq1:  Iter=  2 NonCon=     1 RMS=1.74D-07 Max=1.26D-06 NDo=     1
 LinEq1:  Iter=  3 NonCon=     1 RMS=8.41D-08 Max=9.17D-07 NDo=     1
 LinEq1:  Iter=  4 NonCon=     1 RMS=4.11D-08 Max=3.65D-07 NDo=     1
 LinEq1:  Iter=  5 NonCon=     1 RMS=1.02D-08 Max=1.07D-07 NDo=     1
 LinEq1:  Iter=  6 NonCon=     1 RMS=4.35D-09 Max=5.03D-08 NDo=     1
 LinEq1:  Iter=  7 NonCon=     1 RMS=1.94D-09 Max=1.97D-08 NDo=     1
 LinEq1:  Iter=  8 NonCon=     1 RMS=5.54D-10 Max=2.59D-09 NDo=     1
 LinEq1:  Iter=  9 NonCon=     0 RMS=7.37D-11 Max=4.80D-10 NDo=     1
 Linear equations converged to 5.513D-10 5.513D-09 after     9 iterations.
 LinEq1:  Iter=  0 NonCon=     1 RMS=1.06D-06 Max=8.77D-06 NDo=     1
 LinEq1:  Iter=  1 NonCon=     1 RMS=1.66D-07 Max=1.00D-06 NDo=     1
 LinEq1:  Iter=  2 NonCon=     1 RMS=8.44D-08 Max=5.99D-07 NDo=     1
 LinEq1:  Iter=  3 NonCon=     1 RMS=6.12D-08 Max=5.40D-07 NDo=     1
 LinEq1:  Iter=  4 NonCon=     1 RMS=2.13D-08 Max=1.27D-07 NDo=     1
 LinEq1:  Iter=  5 NonCon=     1 RMS=4.26D-09 Max=3.21D-08 NDo=     1
 LinEq1:  Iter=  6 NonCon=     1 RMS=1.49D-09 Max=1.63D-08 NDo=     1
 LinEq1:  Iter=  7 NonCon=     1 RMS=8.19D-10 Max=1.03D-08 NDo=     1
 LinEq1:  Iter=  8 NonCon=     0 RMS=3.76D-10 Max=3.07D-09 NDo=     1
 Linear equations converged to 7.428D-10 7.428D-09 after     8 iterations.
 LinEq1:  Iter=  0 NonCon=     1 RMS=6.29D-07 Max=5.16D-06 NDo=     1
 LinEq1:  Iter=  1 NonCon=     1 RMS=3.51D-07 Max=4.33D-06 NDo=     1
 LinEq1:  Iter=  2 NonCon=     1 RMS=1.76D-07 Max=1.78D-06 NDo=     1
 LinEq1:  Iter=  3 NonCon=     1 RMS=6.82D-08 Max=5.06D-07 NDo=     1
 LinEq1:  Iter=  4 NonCon=     1 RMS=2.41D-08 Max=2.73D-07 NDo=     1
 LinEq1:  Iter=  5 NonCon=     1 RMS=1.15D-08 Max=8.63D-08 NDo=     1
 LinEq1:  Iter=  6 NonCon=     1 RMS=4.34D-09 Max=3.20D-08 NDo=     1
 LinEq1:  Iter=  7 NonCon=     1 RMS=2.13D-09 Max=1.31D-08 NDo=     1
 LinEq1:  Iter=  8 NonCon=     1 RMS=3.70D-10 Max=2.47D-09 NDo=     1
 LinEq1:  Iter=  9 NonCon=     0 RMS=2.36D-11 Max=2.06D-10 NDo=     1
 Linear equations converged to 2.591D-10 2.591D-09 after     9 iterations.
 LinEq1:  Iter=  0 NonCon=     1 RMS=3.83D-07 Max=3.22D-06 NDo=     1
 LinEq1:  Iter=  1 NonCon=     1 RMS=1.01D-07 Max=1.03D-06 NDo=     1
 LinEq1:  Iter=  2 NonCon=     1 RMS=8.28D-08 Max=8.40D-07 NDo=     1
 LinEq1:  Iter=  3 NonCon=     1 RMS=4.12D-08 Max=3.39D-07 NDo=     1
 LinEq1:  Iter=  4 NonCon=     1 RMS=6.21D-09 Max=3.83D-08 NDo=     1
 LinEq1:  Iter=  5 NonCon=     1 RMS=2.03D-09 Max=2.01D-08 NDo=     1
 LinEq1:  Iter=  6 NonCon=     1 RMS=8.77D-10 Max=9.49D-09 NDo=     1
 LinEq1:  Iter=  7 NonCon=     1 RMS=4.49D-10 Max=4.53D-09 NDo=     1
 LinEq1:  Iter=  8 NonCon=     0 RMS=1.11D-10 Max=8.16D-10 NDo=     1
 Linear equations converged to 3.140D-10 3.140D-09 after     8 iterations.
 LinEq1:  Iter=  0 NonCon=     1 RMS=1.91D-07 Max=1.38D-06 NDo=     1
 LinEq1:  Iter=  1 NonCon=     1 RMS=7.60D-08 Max=7.08D-07 NDo=     1
 LinEq1:  Iter=  2 NonCon=     1 RMS=3.86D-08 Max=3.64D-07 NDo=     1
 LinEq1:  Iter=  3 NonCon=     1 RMS=2.42D-08 Max=2.70D-07 NDo=     1
 LinEq1:  Iter=  4 NonCon=     1 RMS=8.81D-09 Max=5.97D-08 NDo=     1
 LinEq1:  Iter=  5 NonCon=     1 RMS=2.64D-09 Max=2.10D-08 NDo=     1
 LinEq1:  Iter=  6 NonCon=     1 RMS=9.56D-10 Max=6.82D-09 NDo=     1
 LinEq1:  Iter=  7 NonCon=     1 RMS=4.09D-10 Max=3.18D-09 NDo=     1
 LinEq1:  Iter=  8 NonCon=     1 RMS=1.62D-10 Max=1.24D-09 NDo=     1
 LinEq1:  Iter=  9 NonCon=     0 RMS=1.62D-11 Max=1.10D-10 NDo=     1
 Linear equations converged to 8.690D-11 8.690D-10 after     9 iterations.
 LinEq1:  Iter=  0 NonCon=     1 RMS=6.36D-07 Max=4.84D-06 NDo=     1
 LinEq1:  Iter=  1 NonCon=     1 RMS=8.55D-08 Max=5.00D-07 NDo=     1
 LinEq1:  Iter=  2 NonCon=     1 RMS=2.86D-08 Max=2.17D-07 NDo=     1
 LinEq1:  Iter=  3 NonCon=     1 RMS=2.12D-08 Max=2.46D-07 NDo=     1
 LinEq1:  Iter=  4 NonCon=     1 RMS=1.01D-08 Max=6.23D-08 NDo=     1
 LinEq1:  Iter=  5 NonCon=     1 RMS=2.68D-09 Max=2.12D-08 NDo=     1
 LinEq1:  Iter=  6 NonCon=     1 RMS=5.72D-10 Max=4.30D-09 NDo=     1
 LinEq1:  Iter=  7 NonCon=     0 RMS=2.29D-10 Max=2.73D-09 NDo=     1
 Linear equations converged to 2.864D-10 2.864D-09 after     7 iterations.
 LinEq1:  Iter=  0 NonCon=     1 RMS=2.92D-07 Max=3.47D-06 NDo=     1
 LinEq1:  Iter=  1 NonCon=     1 RMS=1.97D-07 Max=2.75D-06 NDo=     1
 LinEq1:  Iter=  2 NonCon=     1 RMS=7.29D-08 Max=5.95D-07 NDo=     1
 LinEq1:  Iter=  3 NonCon=     1 RMS=1.99D-08 Max=1.24D-07 NDo=     1
 LinEq1:  Iter=  4 NonCon=     1 RMS=5.01D-09 Max=4.97D-08 NDo=     1
 LinEq1:  Iter=  5 NonCon=     1 RMS=3.16D-09 Max=3.46D-08 NDo=     1
 LinEq1:  Iter=  6 NonCon=     1 RMS=1.95D-09 Max=1.23D-08 NDo=     1
 LinEq1:  Iter=  7 NonCon=     1 RMS=6.38D-10 Max=5.18D-09 NDo=     1
 LinEq1:  Iter=  8 NonCon=     1 RMS=1.48D-10 Max=1.19D-09 NDo=     1
 LinEq1:  Iter=  9 NonCon=     0 RMS=2.26D-11 Max=1.79D-10 NDo=     1
 Linear equations converged to 8.195D-11 8.195D-10 after     9 iterations.
 LinEq1:  Iter=  0 NonCon=     1 RMS=2.79D-07 Max=2.90D-06 NDo=     1
 LinEq1:  Iter=  1 NonCon=     1 RMS=1.70D-07 Max=2.28D-06 NDo=     1
 LinEq1:  Iter=  2 NonCon=     1 RMS=7.24D-08 Max=7.07D-07 NDo=     1
 LinEq1:  Iter=  3 NonCon=     1 RMS=2.02D-08 Max=1.62D-07 NDo=     1
 LinEq1:  Iter=  4 NonCon=     1 RMS=4.93D-09 Max=4.40D-08 NDo=     1
 LinEq1:  Iter=  5 NonCon=     1 RMS=2.55D-09 Max=2.68D-08 NDo=     1
 LinEq1:  Iter=  6 NonCon=     1 RMS=1.96D-09 Max=1.54D-08 NDo=     1
 LinEq1:  Iter=  7 NonCon=     1 RMS=3.65D-10 Max=3.11D-09 NDo=     1
 LinEq1:  Iter=  8 NonCon=     0 RMS=7.91D-11 Max=7.65D-10 NDo=     1
 Linear equations converged to 1.004D-10 1.004D-09 after     8 iterations.
 QCLLim is confused:  Bigger=T Turned=T
 NLin=  3 IMin12=  1  2 I12=  0  2 IX=  1 XLMin= 0.000D+00 XLMax= 0.000D+00
 X = 0.000D+00 1.000D+00 2.000D+00
 DE= 0.000D+00 5.657D-11 3.235D-10
 LinEq1:  Iter=  0 NonCon=     1 RMS=2.34D-07 Max=2.21D-06 NDo=     1
 LinEq1:  Iter=  1 NonCon=     1 RMS=1.32D-07 Max=1.72D-06 NDo=     1
 LinEq1:  Iter=  2 NonCon=     1 RMS=6.18D-08 Max=6.41D-07 NDo=     1
 LinEq1:  Iter=  3 NonCon=     1 RMS=2.05D-08 Max=1.76D-07 NDo=     1
 LinEq1:  Iter=  4 NonCon=     1 RMS=6.03D-09 Max=5.60D-08 NDo=     1
 LinEq1:  Iter=  5 NonCon=     1 RMS=2.59D-09 Max=3.06D-08 NDo=     1
 LinEq1:  Iter=  6 NonCon=     1 RMS=1.68D-09 Max=1.12D-08 NDo=     1
 LinEq1:  Iter=  7 NonCon=     1 RMS=7.09D-10 Max=4.39D-09 NDo=     1
 LinEq1:  Iter=  8 NonCon=     1 RMS=1.04D-10 Max=8.11D-10 NDo=     1
 LinEq1:  Iter=  9 NonCon=     0 RMS=1.01D-11 Max=7.53D-11 NDo=     1
 Linear equations converged to 1.003D-10 1.003D-09 after     9 iterations.
 LinEq1:  Iter=  0 NonCon=     1 RMS=2.44D-07 Max=1.79D-06 NDo=     1
 LinEq1:  Iter=  1 NonCon=     1 RMS=1.14D-07 Max=1.45D-06 NDo=     1
 LinEq1:  Iter=  2 NonCon=     1 RMS=6.11D-08 Max=7.22D-07 NDo=     1
 LinEq1:  Iter=  3 NonCon=     1 RMS=1.90D-08 Max=1.45D-07 NDo=     1
 LinEq1:  Iter=  4 NonCon=     1 RMS=5.67D-09 Max=5.95D-08 NDo=     1
 LinEq1:  Iter=  5 NonCon=     1 RMS=2.32D-09 Max=2.22D-08 NDo=     1
 LinEq1:  Iter=  6 NonCon=     1 RMS=1.49D-09 Max=9.73D-09 NDo=     1
 LinEq1:  Iter=  7 NonCon=     1 RMS=7.06D-10 Max=4.09D-09 NDo=     1
 LinEq1:  Iter=  8 NonCon=     0 RMS=1.09D-10 Max=8.86D-10 NDo=     1
 Linear equations converged to 1.263D-10 1.263D-09 after     8 iterations.
 LinEq1:  Iter=  0 NonCon=     1 RMS=1.09D-07 Max=8.86D-07 NDo=     1
 LinEq1:  Iter=  1 NonCon=     1 RMS=1.87D-08 Max=1.47D-07 NDo=     1
 LinEq1:  Iter=  2 NonCon=     1 RMS=9.12D-09 Max=6.55D-08 NDo=     1
 LinEq1:  Iter=  3 NonCon=     1 RMS=5.47D-09 Max=6.37D-08 NDo=     1
 LinEq1:  Iter=  4 NonCon=     1 RMS=2.72D-09 Max=2.07D-08 NDo=     1
 LinEq1:  Iter=  5 NonCon=     1 RMS=6.41D-10 Max=4.87D-09 NDo=     1
 LinEq1:  Iter=  6 NonCon=     1 RMS=1.86D-10 Max=1.79D-09 NDo=     1
 LinEq1:  Iter=  7 NonCon=     1 RMS=8.42D-11 Max=1.14D-09 NDo=     1
 LinEq1:  Iter=  8 NonCon=     1 RMS=5.04D-11 Max=5.49D-10 NDo=     1
 LinEq1:  Iter=  9 NonCon=     0 RMS=9.13D-12 Max=8.03D-11 NDo=     1
 Linear equations converged to 4.412D-11 4.412D-10 after     9 iterations.
 LinEq1:  Iter=  0 NonCon=     1 RMS=1.58D-07 Max=1.53D-06 NDo=     1
 LinEq1:  Iter=  1 NonCon=     1 RMS=2.66D-08 Max=2.46D-07 NDo=     1
 LinEq1:  Iter=  2 NonCon=     1 RMS=1.24D-08 Max=1.50D-07 NDo=     1
 LinEq1:  Iter=  3 NonCon=     1 RMS=8.13D-09 Max=7.07D-08 NDo=     1
 LinEq1:  Iter=  4 NonCon=     1 RMS=3.53D-09 Max=3.48D-08 NDo=     1
 LinEq1:  Iter=  5 NonCon=     1 RMS=1.49D-09 Max=8.81D-09 NDo=     1
 LinEq1:  Iter=  6 NonCon=     1 RMS=3.40D-10 Max=2.60D-09 NDo=     1
 LinEq1:  Iter=  7 NonCon=     1 RMS=1.21D-10 Max=9.97D-10 NDo=     1
 LinEq1:  Iter=  8 NonCon=     1 RMS=4.94D-11 Max=3.87D-10 NDo=     1
 LinEq1:  Iter=  9 NonCon=     0 RMS=1.14D-11 Max=8.40D-11 NDo=     1
 Linear equations converged to 4.669D-11 4.669D-10 after     9 iterations.
 LinEq1:  Iter=  0 NonCon=     1 RMS=2.52D-08 Max=1.86D-07 NDo=     1
 LinEq1:  Iter=  1 NonCon=     1 RMS=6.07D-09 Max=5.34D-08 NDo=     1
 LinEq1:  Iter=  2 NonCon=     1 RMS=3.32D-09 Max=3.48D-08 NDo=     1
 LinEq1:  Iter=  3 NonCon=     1 RMS=2.37D-09 Max=2.41D-08 NDo=     1
 LinEq1:  Iter=  4 NonCon=     1 RMS=9.06D-10 Max=5.63D-09 NDo=     1
 LinEq1:  Iter=  5 NonCon=     1 RMS=2.15D-10 Max=1.69D-09 NDo=     1
 LinEq1:  Iter=  6 NonCon=     1 RMS=7.18D-11 Max=6.05D-10 NDo=     1
 LinEq1:  Iter=  7 NonCon=     1 RMS=1.84D-11 Max=1.57D-10 NDo=     1
 LinEq1:  Iter=  8 NonCon=     0 RMS=9.36D-12 Max=1.02D-10 NDo=     1
 Linear equations converged to 1.104D-11 1.104D-10 after     8 iterations.
 Incorrect curvature in search direction -- initial direction reversed.
 LinEq1:  Iter=  0 NonCon=     1 RMS=1.24D-07 Max=1.26D-06 NDo=     1
 LinEq1:  Iter=  1 NonCon=     1 RMS=6.70D-08 Max=7.42D-07 NDo=     1
 LinEq1:  Iter=  2 NonCon=     1 RMS=1.92D-08 Max=1.44D-07 NDo=     1
 LinEq1:  Iter=  3 NonCon=     1 RMS=6.15D-09 Max=5.20D-08 NDo=     1
 LinEq1:  Iter=  4 NonCon=     1 RMS=2.40D-09 Max=1.92D-08 NDo=     1
 LinEq1:  Iter=  5 NonCon=     1 RMS=8.75D-10 Max=1.07D-08 NDo=     1
 LinEq1:  Iter=  6 NonCon=     1 RMS=5.99D-10 Max=3.93D-09 NDo=     1
 LinEq1:  Iter=  7 NonCon=     1 RMS=2.10D-10 Max=1.33D-09 NDo=     1
 LinEq1:  Iter=  8 NonCon=     1 RMS=4.60D-11 Max=3.43D-10 NDo=     1
 LinEq1:  Iter=  9 NonCon=     0 RMS=2.45D-12 Max=1.55D-11 NDo=     1
 Linear equations converged to 1.859D-11 1.859D-10 after     9 iterations.
 LinEq1:  Iter=  0 NonCon=     1 RMS=3.94D-08 Max=2.44D-07 NDo=     1
 LinEq1:  Iter=  1 NonCon=     1 RMS=6.04D-09 Max=4.66D-08 NDo=     1
 LinEq1:  Iter=  2 NonCon=     1 RMS=3.64D-09 Max=3.43D-08 NDo=     1
 LinEq1:  Iter=  3 NonCon=     1 RMS=2.36D-09 Max=2.33D-08 NDo=     1
 LinEq1:  Iter=  4 NonCon=     1 RMS=7.06D-10 Max=5.23D-09 NDo=     1
 LinEq1:  Iter=  5 NonCon=     1 RMS=1.87D-10 Max=1.43D-09 NDo=     1
 LinEq1:  Iter=  6 NonCon=     1 RMS=5.86D-11 Max=4.55D-10 NDo=     1
 LinEq1:  Iter=  7 NonCon=     1 RMS=2.85D-11 Max=1.96D-10 NDo=     1
 LinEq1:  Iter=  8 NonCon=     0 RMS=1.19D-11 Max=8.61D-11 NDo=     1
 Linear equations converged to 1.465D-11 1.465D-10 after     8 iterations.
 LinEq1:  Iter=  0 NonCon=     1 RMS=2.19D-08 Max=1.57D-07 NDo=     1
 LinEq1:  Iter=  1 NonCon=     1 RMS=1.14D-08 Max=8.98D-08 NDo=     1
 LinEq1:  Iter=  2 NonCon=     1 RMS=4.86D-09 Max=3.74D-08 NDo=     1
 LinEq1:  Iter=  3 NonCon=     1 RMS=2.18D-09 Max=1.77D-08 NDo=     1
 LinEq1:  Iter=  4 NonCon=     1 RMS=7.71D-10 Max=6.99D-09 NDo=     1
 LinEq1:  Iter=  5 NonCon=     1 RMS=3.05D-10 Max=2.38D-09 NDo=     1
 LinEq1:  Iter=  6 NonCon=     1 RMS=1.10D-10 Max=1.09D-09 NDo=     1
 LinEq1:  Iter=  7 NonCon=     1 RMS=5.90D-11 Max=5.34D-10 NDo=     1
 LinEq1:  Iter=  8 NonCon=     1 RMS=1.33D-11 Max=1.02D-10 NDo=     1
 LinEq1:  Iter=  9 NonCon=     0 RMS=1.67D-12 Max=1.34D-11 NDo=     1
 Linear equations converged to 7.022D-12 7.022D-11 after     9 iterations.
 LinEq1:  Iter=  0 NonCon=     1 RMS=1.36D-08 Max=1.02D-07 NDo=     1
 LinEq1:  Iter=  1 NonCon=     1 RMS=2.75D-09 Max=2.46D-08 NDo=     1
 LinEq1:  Iter=  2 NonCon=     1 RMS=1.22D-09 Max=1.24D-08 NDo=     1
 LinEq1:  Iter=  3 NonCon=     1 RMS=8.35D-10 Max=7.43D-09 NDo=     1
 LinEq1:  Iter=  4 NonCon=     1 RMS=3.27D-10 Max=2.23D-09 NDo=     1
 LinEq1:  Iter=  5 NonCon=     1 RMS=7.24D-11 Max=5.96D-10 NDo=     1
 LinEq1:  Iter=  6 NonCon=     1 RMS=2.17D-11 Max=1.65D-10 NDo=     1
 LinEq1:  Iter=  7 NonCon=     1 RMS=4.35D-12 Max=3.84D-11 NDo=     1
 LinEq1:  Iter=  8 NonCon=     0 RMS=2.06D-12 Max=1.94D-11 NDo=     1
 Linear equations converged to 3.508D-12 3.508D-11 after     8 iterations.
 LinEq1:  Iter=  0 NonCon=     1 RMS=1.11D-08 Max=9.37D-08 NDo=     1
 LinEq1:  Iter=  1 NonCon=     1 RMS=7.01D-09 Max=6.53D-08 NDo=     1
 LinEq1:  Iter=  2 NonCon=     1 RMS=1.75D-09 Max=1.55D-08 NDo=     1
 LinEq1:  Iter=  3 NonCon=     1 RMS=8.61D-10 Max=6.53D-09 NDo=     1
 LinEq1:  Iter=  4 NonCon=     1 RMS=2.75D-10 Max=2.04D-09 NDo=     1
 LinEq1:  Iter=  5 NonCon=     1 RMS=1.08D-10 Max=1.24D-09 NDo=     1
 LinEq1:  Iter=  6 NonCon=     1 RMS=4.67D-11 Max=5.93D-10 NDo=     1
 LinEq1:  Iter=  7 NonCon=     1 RMS=2.11D-11 Max=1.72D-10 NDo=     1
 LinEq1:  Iter=  8 NonCon=     1 RMS=4.74D-12 Max=3.24D-11 NDo=     1
 LinEq1:  Iter=  9 NonCon=     0 RMS=6.97D-13 Max=4.77D-12 NDo=     1
 Linear equations converged to 2.922D-12 2.922D-11 after     9 iterations.
 QCLLim is confused:  Bigger=T Turned=T
 NLin=  3 IMin12=  1  2 I12=  0  2 IX=  1 XLMin= 0.000D+00 XLMax= 0.000D+00
 X = 0.000D+00 1.000D+00 2.000D+00
 DE= 0.000D+00 5.684D-14 2.686D-12
 LinEq1:  Iter=  0 NonCon=     1 RMS=1.20D-08 Max=1.61D-07 NDo=     1
 LinEq1:  Iter=  1 NonCon=     1 RMS=5.33D-09 Max=3.58D-08 NDo=     1
 LinEq1:  Iter=  2 NonCon=     1 RMS=2.17D-09 Max=2.01D-08 NDo=     1
 LinEq1:  Iter=  3 NonCon=     1 RMS=1.09D-09 Max=1.00D-08 NDo=     1
 LinEq1:  Iter=  4 NonCon=     1 RMS=2.64D-10 Max=1.36D-09 NDo=     1
 LinEq1:  Iter=  5 NonCon=     1 RMS=7.95D-11 Max=1.08D-09 NDo=     1
 LinEq1:  Iter=  6 NonCon=     1 RMS=4.22D-11 Max=5.85D-10 NDo=     1
 LinEq1:  Iter=  7 NonCon=     1 RMS=1.10D-11 Max=8.54D-11 NDo=     1
 LinEq1:  Iter=  8 NonCon=     1 RMS=2.63D-12 Max=2.28D-11 NDo=     1
 LinEq1:  Iter=  9 NonCon=     0 RMS=5.63D-13 Max=3.91D-12 NDo=     1
 Linear equations converged to 2.388D-12 2.388D-11 after     9 iterations.
 SCF Done:  E(UB3LYP) =  -100.790087901     a.u. after   49 cycles
            Convg  =    0.6445D-07                   373 Fock formations.
              S**2 =  1.1652                  -V/T =  2.0030
 <Sx>= 0.0000 <Sy>= 0.0000 <Sz>= 0.5000 <S**2>= 1.1652 S= 0.6896
 <L.S>=  0.00000000000    
 Annihilation of the first spin contaminant:
 S**2 before annihilation     1.1652,   after     0.7510
 DoSCS=F DFT=T ScalE2(SS,OS)=  1.000000  1.000000
 Range of M.O.s used for correlation:     1    30
 NBasis=    30 NAE=     6 NBE=     5 NFC=     0 NFV=     0
 NROrb=     30 NOA=     6 NOB=     5 NVA=    24 NVB=    25

 **** Warning!!: The smallest beta delta epsilon is  0.70487077D-01

 Symmetrizing basis deriv contribution to polar:
 IMax=3 JMax=2 DiffMx= 0.00D+00
 G2DrvN: will do     4 centers at a time, making    1 passes.
 Calling FoFCou, ICntrl=  3107 FMM=F I1Cent=   0 AccDes= 0.00D+00.
 End of G2Drv F.D. properties file   721 does not exist.
 End of G2Drv F.D. properties file   722 does not exist.
 End of G2Drv F.D. properties file   788 does not exist.
          IDoAtm=111
          Differentiating once with respect to electric field.
                with respect to dipole field.
          Differentiating once with respect to nuclear coordinates.
 Keep R1 and R2 ints in memory in canonical form, NReq=7101519.
          There are    12 degrees of freedom in the 1st order CPHF.  IDoFFX=6 NUNeed=     3.
      9 vectors produced by pass  0 Test12= 2.24D-15 8.33D-09 XBig12= 7.68D+01 6.18D+00.
 AX will form     9 AO Fock derivatives at one time.
      9 vectors produced by pass  1 Test12= 2.24D-15 8.33D-09 XBig12= 5.35D+00 1.38D+00.
      9 vectors produced by pass  2 Test12= 2.24D-15 8.33D-09 XBig12= 2.72D-02 9.06D-02.
      7 vectors produced by pass  3 Test12= 2.24D-15 8.33D-09 XBig12= 1.55D-04 4.83D-03.
      6 vectors produced by pass  4 Test12= 2.24D-15 8.33D-09 XBig12= 1.82D-06 5.99D-04.
      4 vectors produced by pass  5 Test12= 2.24D-15 8.33D-09 XBig12= 2.91D-09 2.34D-05.
      3 vectors produced by pass  6 Test12= 2.24D-15 8.33D-09 XBig12= 8.69D-12 1.36D-06.
      1 vectors produced by pass  7 Test12= 2.24D-15 8.33D-09 XBig12= 2.10D-14 5.03D-08.
 InvSVY:  IOpt=1 It=  1 EMax= 5.36D-15
 Solved reduced A of dimension    48 with     9 vectors.
 Isotropic polarizability for W=    0.000000        9.39 Bohr**3.
 End of Minotr F.D. properties file   721 does not exist.
 End of Minotr F.D. properties file   722 does not exist.
 End of Minotr F.D. properties file   788 does not exist.

 **********************************************************************

            Population analysis using the SCF Density.

 **********************************************************************

 Alpha  occ. eigenvalues --  -24.76171  -1.22076  -0.55281  -0.46451  -0.46438
 Alpha  occ. eigenvalues --   -0.32993
 Alpha virt. eigenvalues --   -0.10641   0.25856   0.31284   0.86080   0.90957
 Alpha virt. eigenvalues --    0.91287   1.00890   1.08725   1.24345   1.24346
 Alpha virt. eigenvalues --    1.37967   1.37969   1.64450   2.15879   2.40312
 Alpha virt. eigenvalues --    3.64941   3.67164   3.67170   3.74204   3.74207
 Alpha virt. eigenvalues --    5.85666   5.93605   5.93811  66.46753
  Beta  occ. eigenvalues --  -24.73016  -1.13005  -0.43291  -0.43275  -0.32982
  Beta virt. eigenvalues --   -0.25933  -0.10674   0.25850   0.31295   0.92458
  Beta virt. eigenvalues --    0.92760   0.95547   1.05033   1.08719   1.24344
  Beta virt. eigenvalues --    1.24347   1.37954   1.37955   1.64457   2.15984
  Beta virt. eigenvalues --    2.40194   3.75833   3.75837   3.76980   3.76986
  Beta virt. eigenvalues --    3.79024   5.96277   5.96482   5.99837  66.49894
          Condensed to atoms (all electrons):
               1          2          3
     1  H    0.842202   0.156571   0.000439
     2  H    0.156571   0.844899  -0.000003
     3  F    0.000439  -0.000003   8.998884
          Atomic-Atomic Spin Densities.
               1          2          3
     1  H   -0.670939  -0.000451  -0.000003
     2  H   -0.000451   0.671845   0.000000
     3  F   -0.000003   0.000000   1.000001
 Mulliken charges and spin densities:
               1          2
     1  H    0.000788  -0.671393
     2  H   -0.001467   0.671394
     3  F    0.000679   0.999999
 Sum of Mulliken charges =   0.00000   1.00000
 Mulliken charges and spin densities with hydrogens summed into heavy atoms:
               1          2
     3  F    0.000000   1.000000
 APT charges:
               1
     1  H    0.002056
     2  H   -0.000009
     3  F   -0.002047
 Sum of APT charges =   0.00000
 APT charges with hydrogens summed into heavy atoms:
               1
     3  F    0.000000
 Electronic spatial extent (au):  <R**2>=            528.2681
 Charge=              0.0000 electrons
 Dipole moment (field-independent basis, Debye):
    X=              0.0202    Y=             -0.0000    Z=              0.0000  Tot=              0.0202
 Quadrupole moment (field-independent basis, Debye-Ang):
   XX=             -6.6874   YY=             -7.0693   ZZ=             -7.5942
   XY=             -0.0000   XZ=              0.0000   YZ=             -0.3436
 Traceless Quadrupole moment (field-independent basis, Debye-Ang):
   XX=              0.4296   YY=              0.0476   ZZ=             -0.4772
   XY=             -0.0000   XZ=              0.0000   YZ=             -0.3436
 Octapole moment (field-independent basis, Debye-Ang**2):
  XXX=            -52.0447  YYY=             -0.0000  ZZZ=              0.0000  XYY=            -13.7843
  XXY=             -0.0002  XXZ=              0.0001  XZZ=            -15.8575  YZZ=             -0.0000
  YYZ=              0.0000  XYZ=             -1.3572
 Hexadecapole moment (field-independent basis, Debye-Ang**3):
 XXXX=           -476.8237 YYYY=             -6.0338 ZZZZ=             -6.5030 XXXY=             -0.0012
 XXXZ=              0.0006 YYYX=             -0.0000 YYYZ=             -0.1536 ZZZX=              0.0000
 ZZZY=             -0.1536 XXYY=            -70.7727 XXZZ=            -79.0400 YYZZ=             -2.0895
 XXYZ=             -5.4122 YYXZ=              0.0000 ZZXY=             -0.0000
 N-N= 2.343650169692D+00 E-N=-2.455427508539D+02  KE= 1.004886495433D+02
  Exact polarizability:      23.667      -0.000       2.389       0.000      -0.185       2.107
 Approx polarizability:      35.667      -0.000       2.438       0.000      -0.232       2.084
                          Isotropic Fermi Contact Couplings
        Atom                 a.u.       MegaHertz       Gauss      10(-4) cm-1
     1  H(1)              -0.20053    -896.32494    -319.83103    -298.98182
     2  H(1)               0.20045     895.99132     319.71198     298.87054
     3  F(19)              0.03064     128.93457      46.00706      43.00794
 --------------------------------------------------------
       Center         ----  Spin Dipole Couplings  ----
                      3XX-RR        3YY-RR        3ZZ-RR
 --------------------------------------------------------
     1   Atom        0.038401     -0.019177     -0.019224
     2   Atom       -0.032257      0.016132      0.016125
     3   Atom       -3.150090      4.440873     -1.290783
 --------------------------------------------------------
                        XY            XZ            YZ
 --------------------------------------------------------
     1   Atom        0.000000     -0.000000     -0.000031
     2   Atom        0.000000     -0.000000     -0.000005
     3   Atom       -0.000267      0.000132     -3.752198
 --------------------------------------------------------


 ---------------------------------------------------------------------------------
              Anisotropic Spin Dipole Couplings in Principal Axis System
 ---------------------------------------------------------------------------------

       Atom             a.u.   MegaHertz   Gauss  10(-4) cm-1        Axes

              Baa    -0.0192   -10.265    -3.663    -3.424  0.0000  0.4433  0.8964
     1 H(1)   Bbb    -0.0192   -10.223    -3.648    -3.410 -0.0000  0.8964 -0.4433
              Bcc     0.0384    20.489     7.311     6.834  1.0000  0.0000 -0.0000
 
              Baa    -0.0323   -17.211    -6.141    -5.741  1.0000 -0.0000  0.0000
     2 H(1)   Bbb     0.0161     8.602     3.069     2.869  0.0000  0.4433  0.8964
              Bcc     0.0161     8.609     3.072     2.872  0.0000  0.8964 -0.4433
 
              Baa    -3.1501 -1582.056  -564.517  -527.717  1.0000  0.0000 -0.0000
     3 F(19)  Bbb    -3.1464 -1580.198  -563.854  -527.097  0.0000  0.4433  0.8964
              Bcc     6.2965  3162.254  1128.371  1054.814 -0.0000  0.8964 -0.4433
 

 ---------------------------------------------------------------------------------

 Calling FoFJK, ICntrl=    100127 FMM=F ISym2X=0 I1Cent= 0 IOpClX= 1 NMat=1 NMatS=1 NMatT=0.
 Full mass-weighted force constant matrix:
 Low frequencies ----1819.0008  -51.0327    0.0005    0.0010    0.0021   20.3452
 Low frequencies ---   24.7027  855.0651  855.4096
 ******    2 imaginary frequencies (negative Signs) ****** 
 Diagonal vibrational polarizability:
        0.3055959       0.0000317       0.0000434
 Harmonic frequencies (cm**-1), IR intensities (KM/Mole), Raman scattering
 activities (A**4/AMU), depolarization ratios for plane and unpolarized
 incident light, reduced masses (AMU), force constants (mDyne/A),
 and normal coordinates:
                      1                      2                      3
                      A                      A                      A
 Frequencies --  -1819.0008               -51.0327               840.0331
 Red. masses --      1.0078                 1.1085                 1.0110
 Frc consts  --      1.9647                 0.0017                 0.4204
 IR Inten    --      0.0045                 0.0296                 0.0012
  Atom  AN      X      Y      Z        X      Y      Z        X      Y      Z
     1   1     0.71   0.00  -0.00     0.70  -0.00   0.00    -0.00   0.32   0.76
     2   1    -0.71  -0.00   0.00     0.71   0.00  -0.00    -0.00  -0.22  -0.53
     3   9    -0.00  -0.00   0.00    -0.07   0.00  -0.00     0.00  -0.01  -0.01
                      4
                      A
 Frequencies --    840.4518
 Red. masses --      1.0110
 Frc consts  --      0.4208
 IR Inten    --      0.0007
  Atom  AN      X      Y      Z
     1   1     0.00   0.76  -0.32
     2   1     0.00  -0.53   0.22
     3   9    -0.00  -0.01   0.01

 -------------------
 - Thermochemistry -
 -------------------
 Temperature   298.150 Kelvin.  Pressure   1.00000 Atm.
 Atom     1 has atomic number  1 and mass   1.00783
 Atom     2 has atomic number  1 and mass   1.00783
 Atom     3 has atomic number  9 and mass  18.99840
 Molecular mass:    21.01405 amu.
 Principal axes and moments of inertia in atomic units:
                           1         2         3
     Eigenvalues --     0.00000 157.01173 157.01173
           X            1.00000  -0.00000   0.00000
           Y            0.00000   1.00000   0.00000
           Z            0.00000   0.00000   1.00000
 This molecule is a prolate symmetric top.
 Rotational symmetry number  1.
 Rotational temperature (Kelvin)      0.55164
 Rotational constant (GHZ):          11.494308
    2 imaginary frequencies ignored.
 Zero-point vibrational energy      10051.5 (Joules/Mol)
                                    2.40237 (Kcal/Mol)
 Vibrational temperatures:   1208.62  1209.22
          (Kelvin)
 
 Zero-point correction=                           0.003828 (Hartree/Particle)
 Thermal correction to Energy=                    0.006324
 Thermal correction to Enthalpy=                  0.007268
 Thermal correction to Gibbs Free Energy=        -0.017102
 Sum of electronic and zero-point Energies=           -100.786259
 Sum of electronic and thermal Energies=              -100.783764
 Sum of electronic and thermal Enthalpies=            -100.782820
 Sum of electronic and thermal Free Energies=         -100.807190
 
                     E (Thermal)             CV                S
                      KCal/Mol        Cal/Mol-Kelvin    Cal/Mol-Kelvin
 Total                    3.968              6.141             51.291
 Electronic               0.000              0.000              1.377
 Translational            0.889              2.981             35.068
 Rotational               0.592              1.987             14.492
 Vibrational              2.487              1.173              0.354
                       Q            Log10(Q)             Ln(Q)
 Total Bot       0.734969D+08          7.866269         18.112754
 Total V=0       0.423859D+10          9.627221         22.167496
 Vib (Bot)       0.179573D-01         -1.745759         -4.019758
 Vib (V=0)       0.103560D+01          0.015193          0.034984
 Electronic      0.200000D+01          0.301030          0.693147
 Translational   0.378633D+07          6.578219         15.146908
 Rotational      0.540479D+03          2.732779          6.292457
 -------------------------------------------------------------------
 Center     Atomic                   Forces (Hartrees/Bohr)
 Number     Number              X              Y              Z
 -------------------------------------------------------------------
      1        1          -0.045877598   -0.000000002    0.000000001
      2        1           0.046061800    0.000000000   -0.000000000
      3        9          -0.000184201    0.000000001   -0.000000001
 -------------------------------------------------------------------
 Cartesian Forces:  Max     0.046061800 RMS     0.021670454

 GradGradGradGradGradGradGradGradGradGradGradGradGradGradGradGradGradGrad
 Berny optimization.
 Search for a local minimum.
 Step number   1 out of a maximum of    2
 All quantities printed in internal units (Hartrees-Bohrs-Radians)
 Second derivative matrix not updated -- analytic derivatives used.
 The second derivative matrix:
                          X1        Y1        Z1        X2        Y2
           X1          -0.06317
           Y1           0.00000   0.01399
           Z1          -0.00000  -0.00001   0.01397
           X2           0.06305   0.00000  -0.00000  -0.06311
           Y2          -0.00000  -0.01394   0.00000  -0.00000   0.01393
           Z2           0.00000   0.00000  -0.01394   0.00000  -0.00000
           X3           0.00012  -0.00000   0.00000   0.00006   0.00000
           Y3          -0.00000  -0.00005   0.00001  -0.00000   0.00001
           Z3           0.00000   0.00001  -0.00003   0.00000  -0.00000
                          Z2        X3        Y3        Z3
           Z2           0.01393
           X3          -0.00000  -0.00018
           Y3          -0.00000   0.00000   0.00004
           Z3           0.00000  -0.00000  -0.00000   0.00003
 ITU=  0
     Eigenvalues ---   -0.12620  -0.00020   0.02682   0.02685
 Eigenvalue     1 is  -1.26D-01 should be greater than     0.000000 Eigenvector:
                          X1        X2        X3        Z1        Y1
   1                    0.70733  -0.70688  -0.00015  -0.00000   0.00000
                          Z2        Y2        Z3        Y3
   1                    0.00000  -0.00000   0.00000  -0.00000
 Eigenvalue     2 is  -2.04D-04 should be greater than     0.000000 Eigenvector:
                          X2        X1        X3        Y1        Y2
   1                    0.63985   0.63935  -0.42640  -0.00000   0.00000
                          Z1        Z2        Y3        Z3
   1                    0.00000  -0.00000   0.00000  -0.00000
 Quadratic step=1.191D+00 exceeds max=3.000D-01 adjusted using Lamda=-9.042D-02.
 Angle between NR and scaled steps=  63.91 degrees.
 Angle between quadratic step and forces=   0.29 degrees.
 Linear search not attempted -- first point.
 B after Tr=    -0.000658    0.000000    0.000000
         Rot=    0.964046   -0.265734   -0.000000   -0.000000 Ang= -30.82 deg.
 Variable       Old X    -DE/DX   Delta X   Delta X   Delta X     New X
                                 (Linear)    (Quad)   (Total)
    X1        0.00000  -0.04588   0.00000  -0.21074  -0.21139  -0.21139
    Y1        0.00000  -0.00000   0.00000  -0.00000  -0.00000  -0.00000
    Z1        0.00000   0.00000   0.00000   0.00000  -0.00000  -0.00000
    X2       -3.30702   0.04606   0.00000   0.21370   0.21304  -3.09398
    Y2        0.00000   0.00000   0.00000   0.00000   0.00000   0.00000
    Z2        0.00000  -0.00000   0.00000  -0.00000   0.00000   0.00000
    X3        7.46442  -0.00018   0.00000  -0.00099  -0.00164   7.46277
    Y3        0.00000   0.00000   0.00000   0.00000   0.00000   0.00000
    Z3        0.00000  -0.00000   0.00000  -0.00000   0.00000   0.00000
         Item               Value     Threshold  Converged?
 Maximum Force            0.046062     0.000450     NO 
 RMS     Force            0.021670     0.000300     NO 
 Maximum Displacement     0.213038     0.001800     NO 
 RMS     Displacement     0.100042     0.001200     NO 
 Predicted change in Energy=-2.519472D-02
 GradGradGradGradGradGradGradGradGradGradGradGradGradGradGradGradGradGrad


 ----------------------------------------------------------------------

 Electric dipole moment (input orientation):
 (Debye = 10**-18 statcoulomb cm , SI units = C m)
                  (au)            (Debye)         (10**-30 SI)
   Tot        0.795971D-02      0.202316D-01      0.674852D-01
   x          0.795971D-02      0.202316D-01      0.674852D-01
   y          0.000000D+00      0.000000D+00      0.000000D+00
   z          0.000000D+00      0.000000D+00      0.000000D+00

 Dipole polarizability, Alpha (input orientation).
 (esu units = cm**3 , SI units = C**2 m**2 J**-1)
 Alpha(0;0):
               (au)            (10**-24 esu)      (10**-40 SI)
   iso        0.938757D+01      0.139109D+01      0.154780D+01
   aniso      0.214227D+02      0.317452D+01      0.353213D+01
   xx         0.236668D+02      0.350706D+01      0.390214D+01
   yx        -0.164549D-04     -0.243837D-05     -0.271305D-05
   yy         0.238900D+01      0.354014D+00      0.393893D+00
   zx         0.000000D+00      0.000000D+00      0.000000D+00
   zy        -0.184633D+00     -0.273597D-01     -0.304418D-01
   zz         0.210686D+01      0.312204D+00      0.347374D+00

 ----------------------------------------------------------------------

 Dipole orientation:
     1          0.00000000          0.00000000          0.00000000
     1         -0.00000549         -0.00001136         -3.30702072
     9          0.00001240          0.00002563          7.46441819

 Electric dipole moment (dipole orientation):
 (Debye = 10**-18 statcoulomb cm , SI units = C m)
                  (au)            (Debye)         (10**-30 SI)
   Tot        0.795971D-02      0.202316D-01      0.674852D-01
   x          0.000000D+00      0.000000D+00      0.000000D+00
   y          0.000000D+00      0.000000D+00      0.000000D+00
   z          0.795971D-02      0.202316D-01      0.674852D-01

 Dipole polarizability, Alpha (dipole orientation).
 (esu units = cm**3 , SI units = C**2 m**2 J**-1)
 Alpha(0;0):
               (au)            (10**-24 esu)      (10**-40 SI)
   iso        0.938757D+01      0.139109D+01      0.154780D+01
   aniso      0.214227D+02      0.317452D+01      0.353213D+01
   xx         0.210686D+01      0.312204D+00      0.347374D+00
   yx         0.184634D+00      0.273599D-01      0.304420D-01
   yy         0.238900D+01      0.354013D+00      0.393893D+00
   zx         0.268664D-04      0.398119D-05      0.442967D-05
   zy         0.563030D-04      0.834325D-05      0.928312D-05
   zz         0.236668D+02      0.350706D+01      0.390214D+01

 ----------------------------------------------------------------------
 Unable to Open any file for archive entry.
 1\1\GINC-DESKTOP-B3RIHJD\Freq\UB3LYP\6-311G(d,p)\F1H2(2)\GARYX\23-Aug-
 2025\0\\# sp b3lyp/6-311g** Force nosymm scf=(qc)\\Title Card Required
 \\0,2\H,0.,0.,0.\H,-1.75,0.,0.\F,3.95,0.,0.\\Version=ES64L-G16RevC.01\
 HF=-100.7900879\S2=1.165163\S2-1=0.\S2A=0.751004\RMSD=3.929e-09\RMSF=2
 .167e-02\ZeroPoint=0.0038284\Thermal=0.006324\ETot=-100.7837639\HTot=-
 100.7828197\GTot=-100.8071897\Dipole=0.0079597,0.,0.\DipoleDeriv=0.005
 2445,-0.0000003,0.,-0.0000006,0.0003826,0.0001024,0.0000003,0.0001012,
 0.0005399,0.0021909,-0.0000001,0.,0.0000002,-0.0010841,-0.0000324,0.,-
 0.0000324,-0.0011336,-0.0074354,0.0000004,-0.0000002,0.0000005,0.00070
 15,-0.00007,-0.0000002,-0.0000688,0.0005937\Polar=23.6668447,-0.000016
 5,2.3890025,0.0000083,-0.1846326,2.106857\Quadrupole=0.3194058,0.03540
 8,-0.3548138,-0.0000183,0.000009,-0.2554567\PG=C*V [C*(H1H1F1)]\NImag=
 2\\-0.06317175,0.00000001,0.01399000,0.,-0.00000916,0.01396982,0.06305
 263,0.00000001,0.,-0.06311312,0.,-0.01394185,0.00000313,0.,0.01393482,
 0.,0.00000318,-0.01393697,0.,-0.00000074,0.01393370,0.00011912,-0.0000
 0003,0.00000001,0.00006049,0.,0.,-0.00017962,0.,-0.00004815,0.00000603
 ,0.,0.00000703,-0.00000245,0.00000002,0.00004112,0.,0.00000598,-0.0000
 3285,0.,-0.00000240,0.00000327,0.,-0.00000358,0.00002959\\0.04587760,0
 .,0.,-0.04606180,0.,0.,0.00018420,0.,0.\\\@
 The archive entry for this job was punched.


 THE DIFFERENCE BETWEEN A NOOSE AND A HALO IS ONLY 12 INCHES.
 Job cpu time:       0 days  0 hours  0 minutes 58.4 seconds.
 Elapsed time:       0 days  0 hours  0 minutes  7.9 seconds.
 File lengths (MBytes):  RWF=      6 Int=      0 D2E=      0 Chk=      1 Scr=      1
 Normal termination of Gaussian 16 at Sat Aug 23 01:35:31 2025.
