 Entering Gaussian System, Link 0=g16
 Initial command:
 /home/garyx/gaussian/g16/l1.exe "/tmp/gaussian_scratch/Gau-273162.inp" -scrdir="/tmp/gaussian_scratch/"
 Entering Link 1 = /home/garyx/gaussian/g16/l1.exe PID=    273164.
  
 Copyright (c) 1988-2019, Gaussian, Inc.  All Rights Reserved.
  
 This is part of the Gaussian(R) 16 program.  It is based on
 the Gaussian(R) 09 system (copyright 2009, Gaussian, Inc.),
 the Gaussian(R) 03 system (copyright 2003, Gaussian, Inc.),
 the Gaussian(R) 98 system (copyright 1998, Gaussian, Inc.),
 the Gaussian(R) 94 system (copyright 1995, Gaussian, Inc.),
 the Gaussian 92(TM) system (copyright 1992, Gaussian, Inc.),
 the Gaussian 90(TM) system (copyright 1990, Gaussian, Inc.),
 the Gaussian 88(TM) system (copyright 1988, Gaussian, Inc.),
 the Gaussian 86(TM) system (copyright 1986, Carnegie Mellon
 University), and the Gaussian 82(TM) system (copyright 1983,
 Carnegie Mellon University). Gaussian is a federally registered
 trademark of Gaussian, Inc.
  
 This software contains proprietary and confidential information,
 including trade secrets, belonging to Gaussian, Inc.
  
 This software is provided under written license and may be
 used, copied, transmitted, or stored only in accord with that
 written license.
  
 The following legend is applicable only to US Government
 contracts under FAR:
  
                    RESTRICTED RIGHTS LEGEND
  
 Use, reproduction and disclosure by the US Government is
 subject to restrictions as set forth in subparagraphs (a)
 and (c) of the Commercial Computer Software - Restricted
 Rights clause in FAR 52.227-19.
  
 Gaussian, Inc.
 340 Quinnipiac St., Bldg. 40, Wallingford CT 06492
  
  
 ---------------------------------------------------------------
 Warning -- This program may not be used in any manner that
 competes with the business of Gaussian, Inc. or will provide
 assistance to any competitor of Gaussian, Inc.  The licensee
 of this program is prohibited from giving any competitor of
 Gaussian, Inc. access to this program.  By using this program,
 the user acknowledges that Gaussian, Inc. is engaged in the
 business of creating and licensing software in the field of
 computational chemistry and represents and warrants to the
 licensee that it is not a competitor of Gaussian, Inc. and that
 it will not use this program in any manner prohibited above.
 ---------------------------------------------------------------
  

 Cite this work as:
 Gaussian 16, Revision C.01,
 M. J. Frisch, G. W. Trucks, H. B. Schlegel, G. E. Scuseria, 
 M. A. Robb, J. R. Cheeseman, G. Scalmani, V. Barone, 
 G. A. Petersson, H. Nakatsuji, X. Li, M. Caricato, A. V. Marenich, 
 J. Bloino, B. G. Janesko, R. Gomperts, B. Mennucci, H. P. Hratchian, 
 J. V. Ortiz, A. F. Izmaylov, J. L. Sonnenberg, D. Williams-Young, 
 F. Ding, F. Lipparini, F. Egidi, J. Goings, B. Peng, A. Petrone, 
 T. Henderson, D. Ranasinghe, V. G. Zakrzewski, J. Gao, N. Rega, 
 G. Zheng, W. Liang, M. Hada, M. Ehara, K. Toyota, R. Fukuda, 
 J. Hasegawa, M. Ishida, T. Nakajima, Y. Honda, O. Kitao, H. Nakai, 
 T. Vreven, K. Throssell, J. A. Montgomery, Jr., J. E. Peralta, 
 F. Ogliaro, M. J. Bearpark, J. J. Heyd, E. N. Brothers, K. N. Kudin, 
 V. N. Staroverov, T. A. Keith, R. Kobayashi, J. Normand, 
 K. Raghavachari, A. P. Rendell, J. C. Burant, S. S. Iyengar, 
 J. Tomasi, M. Cossi, J. M. Millam, M. Klene, C. Adamo, R. Cammi, 
 J. W. Ochterski, R. L. Martin, K. Morokuma, O. Farkas, 
 J. B. Foresman, and D. J. Fox, Gaussian, Inc., Wallingford CT, 2019.
 
 ******************************************
 Gaussian 16:  ES64L-G16RevC.01  3-Jul-2019
                22-Aug-2025 
 ******************************************
 %mem=10GB
 %nprocs=8
 Will use up to    8 processors via shared memory.
 -----------------------------------------
 # sp b3lyp/6-311g** Force nosymm scf=(qc)
 -----------------------------------------
 1/10=4,30=1,38=1/1,3;
 2/12=2,15=1,17=6,18=5,40=1/2;
 3/5=4,6=6,7=101,11=2,25=1,30=1,71=2,74=-5,140=1/1,2,3;
 4//1;
 5/5=2,8=3,38=5,98=1/8;
 8/6=4,10=90,11=11/1;
 11/6=1,8=1,9=11,15=111,16=1,31=1/1,2,10;
 10/6=1,31=1/2;
 6/7=2,8=2,9=2,10=2,28=1/1;
 7/8=1,10=1,25=1,30=1/1,2,3,16;
 1/10=4,30=1/3;
 99//99;
 -------------------
 Title Card Required
 -------------------
 Symbolic Z-matrix:
 Charge =  0 Multiplicity = 2
 H                     0.        0.        0. 
 H                    -2.9       0.        0. 
 F                     1.3       0.        0. 
 

 GradGradGradGradGradGradGradGradGradGradGradGradGradGradGradGradGradGrad
 Berny optimization.
 Initialization pass.
 Trust Radius=3.00D-01 FncErr=1.00D-07 GrdErr=1.00D-07 EigMax=2.50D+02 EigMin=1.00D-04
 Number of steps in this run=      2 maximum allowed number of steps=      2.
 GradGradGradGradGradGradGradGradGradGradGradGradGradGradGradGradGradGrad

                          Input orientation:                          
 ---------------------------------------------------------------------
 Center     Atomic      Atomic             Coordinates (Angstroms)
 Number     Number       Type             X           Y           Z
 ---------------------------------------------------------------------
      1          1           0        0.000000    0.000000    0.000000
      2          1           0       -2.900000    0.000000    0.000000
      3          9           0        1.300000    0.000000    0.000000
 ---------------------------------------------------------------------
                    Distance matrix (angstroms):
                    1          2          3
     1  H    0.000000
     2  H    2.900000   0.000000
     3  F    1.300000   4.200000   0.000000
 Symmetry turned off by external request.
 Stoichiometry    FH2(2)
 Framework group  C*V[C*(HHF)]
 Deg. of freedom     2
 Full point group                 C*V     NOp   4
 Rotational constants (GHZ):           0.0000000          28.0468065          28.0468065
 Standard basis: 6-311G(d,p) (5D, 7F)
    30 basis functions,    48 primitive gaussians,    31 cartesian basis functions
     6 alpha electrons        5 beta electrons
       nuclear repulsion energy         4.9799606037 Hartrees.
 NAtoms=    3 NActive=    3 NUniq=    3 SFac= 1.00D+00 NAtFMM=   60 NAOKFM=F Big=F
 Integral buffers will be    131072 words long.
 Raffenetti 2 integral format.
 Two-electron integral symmetry is turned off.
 One-electron integrals computed using PRISM.
 NBasis=    30 RedAO= T EigKep=  7.73D-02  NBF=    30
 NBsUse=    30 1.00D-06 EigRej= -1.00D+00 NBFU=    30
 ExpMin= 1.03D-01 ExpMax= 1.14D+04 ExpMxC= 1.72D+03 IAcc=3 IRadAn=         5 AccDes= 0.00D+00
 Harris functional with IExCor=  402 and IRadAn=       5 diagonalized for initial guess.
 HarFok:  IExCor=  402 AccDes= 0.00D+00 IRadAn=         5 IDoV= 1 UseB2=F ITyADJ=14
 ICtDFT=  3500011 ScaDFX=  1.000000  1.000000  1.000000  1.000000
 FoFCou: FMM=F IPFlag=           0 FMFlag=      100000 FMFlg1=           0
         NFxFlg=           0 DoJE=T BraDBF=F KetDBF=T FulRan=T
         wScrn=  0.000000 ICntrl=       500 IOpCl=  0 I1Cent=   200000004 NGrid=           0
         NMat0=    1 NMatS0=      1 NMatT0=    0 NMatD0=    1 NMtDS0=    0 NMtDT0=    0
 Symmetry not used in FoFCou.
 Initial guess <Sx>= 0.0000 <Sy>= 0.0000 <Sz>= 0.5000 <S**2>= 0.7500 S= 0.5000
 Keep R1 and R2 ints in memory in canonical form, NReq=7127049.
 Gradient too large for Newton-Raphson -- use scaled steepest descent instead.
     Accept linear search using points  1 and  2.
 Gradient too large for Newton-Raphson -- use scaled steepest descent instead.
     Minimum is close to point  2 DX=  3.32D-02 DF= -1.51D-04 DXR=  9.96D-02 DFR=  1.00D-02 which will be used.
 Gradient too large for Newton-Raphson -- use scaled steepest descent instead.
 Gradient too large for Newton-Raphson -- use scaled steepest descent instead.
     Accept linear search using points  1 and  2.
 LinEq1:  Iter=  0 NonCon=     1 RMS=5.65D-04 Max=7.24D-03 NDo=     1
 AX will form     1 AO Fock derivatives at one time.
 LinEq1:  Iter=  1 NonCon=     1 RMS=2.96D-04 Max=2.82D-03 NDo=     1
 LinEq1:  Iter=  2 NonCon=     1 RMS=1.60D-04 Max=1.59D-03 NDo=     1
 LinEq1:  Iter=  3 NonCon=     1 RMS=8.36D-05 Max=5.89D-04 NDo=     1
 LinEq1:  Iter=  4 NonCon=     1 RMS=1.20D-05 Max=1.37D-04 NDo=     1
 LinEq1:  Iter=  5 NonCon=     1 RMS=5.51D-07 Max=2.94D-06 NDo=     1
 LinEq1:  Iter=  6 NonCon=     1 RMS=1.15D-07 Max=8.56D-07 NDo=     1
 LinEq1:  Iter=  7 NonCon=     1 RMS=1.19D-08 Max=1.14D-07 NDo=     1
 LinEq1:  Iter=  8 NonCon=     0 RMS=8.42D-10 Max=5.33D-09 NDo=     1
 Linear equations converged to 1.640D-09 1.640D-08 after     8 iterations.
     Minimum is close to point  2 DX=  4.72D-03 DF= -7.68D-10 DXR=  4.69D-03 DFR=  2.20D-05 which will be used.
 LinEq1:  Iter=  0 NonCon=     1 RMS=2.71D-06 Max=4.24D-05 NDo=     1
 LinEq1:  Iter=  1 NonCon=     1 RMS=2.77D-07 Max=1.69D-06 NDo=     1
 LinEq1:  Iter=  2 NonCon=     1 RMS=3.45D-07 Max=3.02D-06 NDo=     1
 LinEq1:  Iter=  3 NonCon=     1 RMS=1.42D-07 Max=1.70D-06 NDo=     1
 LinEq1:  Iter=  4 NonCon=     1 RMS=4.88D-08 Max=4.67D-07 NDo=     1
 LinEq1:  Iter=  5 NonCon=     1 RMS=4.60D-09 Max=2.43D-08 NDo=     1
 LinEq1:  Iter=  6 NonCon=     1 RMS=4.21D-10 Max=2.88D-09 NDo=     1
 LinEq1:  Iter=  7 NonCon=     0 RMS=4.90D-11 Max=2.28D-10 NDo=     1
 Linear equations converged to 1.685D-10 1.685D-09 after     7 iterations.
 SCF Done:  E(UB3LYP) =  -100.901555921     a.u. after    7 cycles
            Convg  =    0.3507D-08                    30 Fock formations.
              S**2 =  0.7501                  -V/T =  2.0043
 <Sx>= 0.0000 <Sy>= 0.0000 <Sz>= 0.5000 <S**2>= 0.7501 S= 0.5000
 <L.S>=  0.00000000000    
 Annihilation of the first spin contaminant:
 S**2 before annihilation     0.7501,   after     0.7500
 DoSCS=F DFT=T ScalE2(SS,OS)=  1.000000  1.000000
 Range of M.O.s used for correlation:     1    30
 NBasis=    30 NAE=     6 NBE=     5 NFC=     0 NFV=     0
 NROrb=     30 NOA=     6 NOB=     5 NVA=    24 NVB=    25
 Symmetrizing basis deriv contribution to polar:
 IMax=3 JMax=2 DiffMx= 0.00D+00
 G2DrvN: will do     4 centers at a time, making    1 passes.
 Calling FoFCou, ICntrl=  3107 FMM=F I1Cent=   0 AccDes= 0.00D+00.
 End of G2Drv F.D. properties file   721 does not exist.
 End of G2Drv F.D. properties file   722 does not exist.
 End of G2Drv F.D. properties file   788 does not exist.
          IDoAtm=111
          Differentiating once with respect to electric field.
                with respect to dipole field.
          Differentiating once with respect to nuclear coordinates.
 Keep R1 and R2 ints in memory in canonical form, NReq=7101519.
          There are    12 degrees of freedom in the 1st order CPHF.  IDoFFX=6 NUNeed=     3.
      9 vectors produced by pass  0 Test12= 2.24D-15 8.33D-09 XBig12= 2.52D+01 3.02D+00.
 AX will form     9 AO Fock derivatives at one time.
      9 vectors produced by pass  1 Test12= 2.24D-15 8.33D-09 XBig12= 5.72D+00 7.36D-01.
      9 vectors produced by pass  2 Test12= 2.24D-15 8.33D-09 XBig12= 5.77D-02 9.33D-02.
      9 vectors produced by pass  3 Test12= 2.24D-15 8.33D-09 XBig12= 2.26D-04 7.13D-03.
      7 vectors produced by pass  4 Test12= 2.24D-15 8.33D-09 XBig12= 6.80D-07 2.61D-04.
      4 vectors produced by pass  5 Test12= 2.24D-15 8.33D-09 XBig12= 3.71D-09 2.20D-05.
      1 vectors produced by pass  6 Test12= 2.24D-15 8.33D-09 XBig12= 7.04D-12 1.03D-06.
      1 vectors produced by pass  7 Test12= 2.24D-15 8.33D-09 XBig12= 1.56D-14 3.76D-08.
 InvSVY:  IOpt=1 It=  1 EMax= 7.77D-16
 Solved reduced A of dimension    49 with     9 vectors.
 Isotropic polarizability for W=    0.000000        5.91 Bohr**3.
 End of Minotr F.D. properties file   721 does not exist.
 End of Minotr F.D. properties file   722 does not exist.
 End of Minotr F.D. properties file   788 does not exist.

 **********************************************************************

            Population analysis using the SCF Density.

 **********************************************************************

 Alpha  occ. eigenvalues --  -24.64281  -1.11051  -0.46027  -0.36993  -0.36993
 Alpha  occ. eigenvalues --   -0.34658
 Alpha virt. eigenvalues --   -0.08647   0.22759   0.27921   0.93082   0.93082
 Alpha virt. eigenvalues --    1.02106   1.21402   1.22869   1.22869   1.24439
 Alpha virt. eigenvalues --    1.33904   1.33904   1.71332   2.13893   2.25271
 Alpha virt. eigenvalues --    3.83685   3.83685   3.84717   3.84717   4.28974
 Alpha virt. eigenvalues --    6.04489   6.04489   6.11919  66.63824
  Beta  occ. eigenvalues --  -24.64254  -1.10982  -0.45936  -0.36969  -0.36969
  Beta virt. eigenvalues --   -0.11091  -0.05489   0.26058   0.37313   0.93077
  Beta virt. eigenvalues --    0.93077   1.02176   1.22396   1.33830   1.33830
  Beta virt. eigenvalues --    1.44832   1.45057   1.45057   1.71529   2.25165
  Beta virt. eigenvalues --    2.41523   3.83698   3.83698   3.84797   3.84797
  Beta virt. eigenvalues --    4.29059   6.04511   6.04511   6.12033  66.63850
          Condensed to atoms (all electrons):
               1          2          3
     1  H    0.448523   0.004151   0.192702
     2  H    0.004151   0.990422  -0.000137
     3  F    0.192702  -0.000137   9.167624
          Atomic-Atomic Spin Densities.
               1          2          3
     1  H   -0.005318   0.003482  -0.000257
     2  H    0.003482   0.990318  -0.000188
     3  F   -0.000257  -0.000188   0.008925
 Mulliken charges and spin densities:
               1          2
     1  H    0.354625  -0.002093
     2  H    0.005564   0.993612
     3  F   -0.360189   0.008481
 Sum of Mulliken charges =   0.00000   1.00000
 Mulliken charges and spin densities with hydrogens summed into heavy atoms:
               1          2
     3  F    0.000000   1.000000
 APT charges:
               1
     1  H    0.345619
     2  H   -0.006641
     3  F   -0.338978
 Sum of APT charges =   0.00000
 APT charges with hydrogens summed into heavy atoms:
               1
     3  F    0.000000
 Electronic spatial extent (au):  <R**2>=            101.7566
 Charge=              0.0000 electrons
 Dipole moment (field-independent basis, Debye):
    X=             -2.4712    Y=             -0.0000    Z=              0.0000  Tot=              2.4712
 Quadrupole moment (field-independent basis, Debye-Ang):
   XX=             -9.0145   YY=             -7.1999   ZZ=             -7.1999
   XY=             -0.0000   XZ=              0.0000   YZ=             -0.0000
 Traceless Quadrupole moment (field-independent basis, Debye-Ang):
   XX=             -1.2097   YY=              0.6049   ZZ=              0.6049
   XY=             -0.0000   XZ=              0.0000   YZ=             -0.0000
 Octapole moment (field-independent basis, Debye-Ang**2):
  XXX=            -10.9426  YYY=             -0.0000  ZZZ=             -0.0000  XYY=             -2.7525
  XXY=             -0.0000  XXZ=              0.0000  XZZ=             -2.7525  YZZ=             -0.0000
  YYZ=             -0.0000  XYZ=             -0.0000
 Hexadecapole moment (field-independent basis, Debye-Ang**3):
 XXXX=           -121.4784 YYYY=             -5.3311 ZZZZ=             -5.3311 XXXY=             -0.0000
 XXXZ=             -0.0000 YYYX=             -0.0000 YYYZ=             -0.0000 ZZZX=             -0.0000
 ZZZY=             -0.0000 XXYY=            -21.9167 XXZZ=            -21.9167 YYZZ=             -1.7770
 XXYZ=             -0.0000 YYXZ=             -0.0000 ZZXY=             -0.0000
 N-N= 4.979960603713D+00 E-N=-2.515696420742D+02  KE= 1.004648312046D+02
  Exact polarizability:      13.165      -0.000       2.288       0.000       0.000       2.288
 Approx polarizability:      19.100      -0.000       2.234       0.000      -0.000       2.234
                          Isotropic Fermi Contact Couplings
        Atom                 a.u.       MegaHertz       Gauss      10(-4) cm-1
     1  H(1)              -0.00184      -8.20860      -2.92903      -2.73809
     2  H(1)               0.29555    1321.08804     471.39707     440.66754
     3  F(19)             -0.00242     -10.17931      -3.63223      -3.39545
 --------------------------------------------------------
       Center         ----  Spin Dipole Couplings  ----
                      3XX-RR        3YY-RR        3ZZ-RR
 --------------------------------------------------------
     1   Atom        0.014122     -0.007061     -0.007061
     2   Atom        0.000327     -0.000163     -0.000163
     3   Atom        0.059540     -0.029770     -0.029770
 --------------------------------------------------------
                        XY            XZ            YZ
 --------------------------------------------------------
     1   Atom        0.000000      0.000000      0.000000
     2   Atom        0.000000      0.000000      0.000000
     3   Atom        0.000000      0.000000      0.000000
 --------------------------------------------------------


 ---------------------------------------------------------------------------------
              Anisotropic Spin Dipole Couplings in Principal Axis System
 ---------------------------------------------------------------------------------

       Atom             a.u.   MegaHertz   Gauss  10(-4) cm-1        Axes

              Baa    -0.0071    -3.767    -1.344    -1.257  0.0000  0.0000  1.0000
     1 H(1)   Bbb    -0.0071    -3.767    -1.344    -1.257 -0.0000  1.0000  0.0000
              Bcc     0.0141     7.535     2.689     2.513  1.0000  0.0000  0.0000
 
              Baa    -0.0002    -0.087    -0.031    -0.029 -0.0000  1.0000  0.0000
     2 H(1)   Bbb    -0.0002    -0.087    -0.031    -0.029  0.0000  0.0000  1.0000
              Bcc     0.0003     0.174     0.062     0.058  1.0000  0.0000  0.0000
 
              Baa    -0.0298   -14.951    -5.335    -4.987  0.0000  0.0000  1.0000
     3 F(19)  Bbb    -0.0298   -14.951    -5.335    -4.987 -0.0000  1.0000  0.0000
              Bcc     0.0595    29.902    10.670     9.974  1.0000  0.0000  0.0000
 

 ---------------------------------------------------------------------------------

 Calling FoFJK, ICntrl=    100127 FMM=F ISym2X=0 I1Cent= 0 IOpClX= 1 NMat=1 NMatS=1 NMatT=0.
 Full mass-weighted force constant matrix:
 Low frequencies --- -649.3072 -119.7094   -0.0022   -0.0014   -0.0014   50.6717
 Low frequencies ---   50.6717 1202.5963 1202.5963
 ******    2 imaginary frequencies (negative Signs) ****** 
 Diagonal vibrational polarizability:
        5.5457444       2.6342244       2.6342244
 Harmonic frequencies (cm**-1), IR intensities (KM/Mole), Raman scattering
 activities (A**4/AMU), depolarization ratios for plane and unpolarized
 incident light, reduced masses (AMU), force constants (mDyne/A),
 and normal coordinates:
                      1                      2                      3
                      A                      A                      A
 Frequencies --   -649.3072              -119.7094              1148.1054
 Red. masses --      1.0502                 1.0614                 1.0298
 Frc consts  --      0.2609                 0.0090                 0.7998
 IR Inten    --     84.1486                 0.0929               129.0278
  Atom  AN      X      Y      Z        X      Y      Z        X      Y      Z
     1   1     1.00  -0.00   0.00     0.03  -0.00  -0.00     0.00   0.95  -0.00
     2   1    -0.08   0.00  -0.00     1.00   0.00   0.00     0.00  -0.30   0.00
     3   9    -0.05   0.00  -0.00    -0.05   0.00   0.00    -0.00  -0.03   0.00
                      4
                      A
 Frequencies --   1148.1054
 Red. masses --      1.0298
 Frc consts  --      0.7998
 IR Inten    --    129.0278
  Atom  AN      X      Y      Z
     1   1    -0.00   0.00   0.95
     2   1     0.00  -0.00  -0.30
     3   9     0.00  -0.00  -0.03

 -------------------
 - Thermochemistry -
 -------------------
 Temperature   298.150 Kelvin.  Pressure   1.00000 Atm.
 Atom     1 has atomic number  1 and mass   1.00783
 Atom     2 has atomic number  1 and mass   1.00783
 Atom     3 has atomic number  9 and mass  18.99840
 Molecular mass:    21.01405 amu.
 Principal axes and moments of inertia in atomic units:
                           1         2         3
     Eigenvalues --     0.00000  64.34748  64.34748
           X            1.00000  -0.00000   0.00000
           Y            0.00000   1.00000   0.00000
           Z            0.00000   0.00000   1.00000
 This molecule is a prolate symmetric top.
 Rotational symmetry number  1.
 Rotational temperature (Kelvin)      1.34603
 Rotational constant (GHZ):          28.046806
    2 imaginary frequencies ignored.
 Zero-point vibrational energy      13734.4 (Joules/Mol)
                                    3.28260 (Kcal/Mol)
 Vibrational temperatures:   1651.87  1651.87
          (Kelvin)
 
 Zero-point correction=                           0.005231 (Hartree/Particle)
 Thermal correction to Energy=                    0.007633
 Thermal correction to Enthalpy=                  0.008577
 Thermal correction to Gibbs Free Energy=        -0.014831
 Sum of electronic and zero-point Energies=           -100.896325
 Sum of electronic and thermal Energies=              -100.893923
 Sum of electronic and thermal Enthalpies=            -100.892979
 Sum of electronic and thermal Free Energies=         -100.916387
 
                     E (Thermal)             CV                S
                      KCal/Mol        Cal/Mol-Kelvin    Cal/Mol-Kelvin
 Total                    4.790              5.451             49.267
 Electronic               0.000              0.000              1.377
 Translational            0.889              2.981             35.068
 Rotational               0.592              1.987             12.719
 Vibrational              3.308              0.483              0.102
                       Q            Log10(Q)             Ln(Q)
 Total Bot       0.663563D+07          6.821882         15.707963
 Total V=0       0.169061D+10          9.228043         21.248355
 Vib (Bot)       0.395598D-02         -2.402745         -5.532526
 Vib (V=0)       0.100790D+01          0.003416          0.007865
 Electronic      0.200000D+01          0.301030          0.693147
 Translational   0.378633D+07          6.578219         15.146908
 Rotational      0.221502D+03          2.345379          5.400434
 -------------------------------------------------------------------
 Center     Atomic                   Forces (Hartrees/Bohr)
 Number     Number              X              Y              Z
 -------------------------------------------------------------------
      1        1           0.127915666    0.000000000    0.000000000
      2        1           0.000495003   -0.000000000   -0.000000000
      3        9          -0.128410669   -0.000000000   -0.000000000
 -------------------------------------------------------------------
 Cartesian Forces:  Max     0.128410669 RMS     0.060417035

 GradGradGradGradGradGradGradGradGradGradGradGradGradGradGradGradGradGrad
 Berny optimization.
 Search for a local minimum.
 Step number   1 out of a maximum of    2
 All quantities printed in internal units (Hartrees-Bohrs-Radians)
 Second derivative matrix not updated -- analytic derivatives used.
 The second derivative matrix:
                          X1        Y1        Z1        X2        Y2
           X1          -0.01529
           Y1           0.00000   0.05239
           Z1          -0.00000   0.00000   0.05239
           X2           0.00123   0.00000   0.00000  -0.00062
           Y2           0.00000  -0.00010   0.00000  -0.00000   0.00009
           Z2           0.00000   0.00000  -0.00010   0.00000   0.00000
           X3           0.01407  -0.00000   0.00000  -0.00061  -0.00000
           Y3          -0.00000  -0.05229  -0.00000  -0.00000   0.00001
           Z3           0.00000  -0.00000  -0.05229  -0.00000  -0.00000
                          Z2        X3        Y3        Z3
           Z2           0.00009
           X3          -0.00000  -0.01346
           Y3          -0.00000   0.00000   0.05228
           Z3           0.00001  -0.00000   0.00000   0.05228
 ITU=  0
     Eigenvalues ---   -0.02371  -0.00076   0.06903   0.06903
 Eigenvalue     1 is  -2.37D-02 should be greater than     0.000000 Eigenvector:
                          X1        X3        X2        Y1        Y2
   1                    0.93724  -0.33926   0.08053  -0.00000   0.00000
                          Z1        Y3        Z2        Z3
   1                    0.00000   0.00000  -0.00000  -0.00000
 Eigenvalue     2 is  -7.61D-04 should be greater than     0.000000 Eigenvector:
                          X2        X3        X1        Y1        Y2
   1                    0.95006  -0.25831  -0.17513  -0.00000   0.00000
                          Y3        Z1        Z2        Z3
   1                    0.00000  -0.00000   0.00000   0.00000
 Quadratic step=1.629D+01 exceeds max=3.000D-01 adjusted using Lamda=-5.223D-01.
 Angle between NR and scaled steps=  60.85 degrees.
 Angle between quadratic step and forces=  25.29 degrees.
 Linear search not attempted -- first point.
 B after Tr=    -0.071421   -0.000000    0.000000
         Rot=    0.761896   -0.647699    0.000000   -0.000000 Ang= -80.74 deg.
 Variable       Old X    -DE/DX   Delta X   Delta X   Delta X     New X
                                 (Linear)    (Quad)   (Total)
    X1        0.00000   0.12792   0.00000   0.27687   0.20545   0.20545
    Y1        0.00000   0.00000   0.00000  -0.00000  -0.00000  -0.00000
    Z1        0.00000   0.00000   0.00000   0.00000  -0.00000  -0.00000
    X2       -5.48021   0.00050   0.00000   0.04452  -0.02690  -5.50710
    Y2        0.00000  -0.00000   0.00000   0.00000   0.00000   0.00000
    Z2        0.00000  -0.00000   0.00000  -0.00000  -0.00000  -0.00000
    X3        2.45664  -0.12841   0.00000  -0.10713  -0.17855   2.27809
    Y3        0.00000  -0.00000   0.00000   0.00000  -0.00000  -0.00000
    Z3        0.00000  -0.00000   0.00000  -0.00000   0.00000   0.00000
         Item               Value     Threshold  Converged?
 Maximum Force            0.128411     0.000450     NO 
 RMS     Force            0.060417     0.000300     NO 
 Maximum Displacement     0.205450     0.001800     NO 
 RMS     Displacement     0.091174     0.001200     NO 
 Predicted change in Energy=-5.025830D-02
 GradGradGradGradGradGradGradGradGradGradGradGradGradGradGradGradGradGrad


 ----------------------------------------------------------------------

 Electric dipole moment (input orientation):
 (Debye = 10**-18 statcoulomb cm , SI units = C m)
                  (au)            (Debye)         (10**-30 SI)
   Tot        0.972260D+00      0.247124D+01      0.824316D+01
   x         -0.972260D+00     -0.247124D+01     -0.824316D+01
   y          0.000000D+00      0.000000D+00      0.000000D+00
   z          0.000000D+00      0.000000D+00      0.000000D+00

 Dipole polarizability, Alpha (input orientation).
 (esu units = cm**3 , SI units = C**2 m**2 J**-1)
 Alpha(0;0):
               (au)            (10**-24 esu)      (10**-40 SI)
   iso        0.591372D+01      0.876323D+00      0.975041D+00
   aniso      0.108772D+02      0.161183D+01      0.179340D+01
   xx         0.131652D+02      0.195088D+01      0.217064D+01
   yx         0.000000D+00      0.000000D+00      0.000000D+00
   yy         0.228800D+01      0.339047D+00      0.377241D+00
   zx         0.000000D+00      0.000000D+00      0.000000D+00
   zy         0.000000D+00      0.000000D+00      0.000000D+00
   zz         0.228800D+01      0.339047D+00      0.377241D+00

 ----------------------------------------------------------------------

 Dipole orientation:
     1          0.00000000          0.00000000          0.00000000
     1         -0.00000000          0.00000000          5.48020576
     9          0.00000000         -0.00000000         -2.45664396

 Electric dipole moment (dipole orientation):
 (Debye = 10**-18 statcoulomb cm , SI units = C m)
                  (au)            (Debye)         (10**-30 SI)
   Tot        0.972260D+00      0.247124D+01      0.824316D+01
   x          0.000000D+00      0.000000D+00      0.000000D+00
   y          0.000000D+00      0.000000D+00      0.000000D+00
   z          0.972260D+00      0.247124D+01      0.824316D+01

 Dipole polarizability, Alpha (dipole orientation).
 (esu units = cm**3 , SI units = C**2 m**2 J**-1)
 Alpha(0;0):
               (au)            (10**-24 esu)      (10**-40 SI)
   iso        0.591372D+01      0.876323D+00      0.975041D+00
   aniso      0.108772D+02      0.161183D+01      0.179340D+01
   xx         0.228800D+01      0.339047D+00      0.377241D+00
   yx         0.000000D+00      0.000000D+00      0.000000D+00
   yy         0.228800D+01      0.339047D+00      0.377241D+00
   zx         0.000000D+00      0.000000D+00      0.000000D+00
   zy         0.000000D+00      0.000000D+00      0.000000D+00
   zz         0.131652D+02      0.195088D+01      0.217064D+01

 ----------------------------------------------------------------------
 Unable to Open any file for archive entry.
 1\1\GINC-DESKTOP-B3RIHJD\Freq\UB3LYP\6-311G(d,p)\F1H2(2)\GARYX\22-Aug-
 2025\0\\# sp b3lyp/6-311g** Force nosymm scf=(qc)\\Title Card Required
 \\0,2\H,0.,0.,0.\H,-2.9,0.,0.\F,1.3,0.,0.\\Version=ES64L-G16RevC.01\HF
 =-100.9015559\S2=0.750051\S2-1=0.\S2A=0.75\RMSD=2.138e-10\RMSF=6.042e-
 02\ZeroPoint=0.0052312\Thermal=0.0076328\ETot=-100.8939231\HTot=-100.8
 929789\GTot=-100.9163871\Dipole=-0.9722595,0.,0.\DipoleDeriv=0.28735,0
 .,0.,0.,0.3747537,0.,0.,0.,0.3747537,-0.0329329,0.,0.,0.,0.0065049,0.,
 0.,0.,0.0065049,-0.2544171,0.,0.,0.,-0.3812586,0.,0.,0.,-0.3812586\Pol
 ar=13.1651597,0.,2.2880039,0.,0.,2.2880039\Quadrupole=-0.899394,0.4496
 97,0.449697,0.,0.,0.\PG=C*V [C*(H1H1F1)]\NImag=2\\-0.01529427,0.,0.052
 38996,0.,0.,0.05238996,0.00122822,0.,0.,-0.00061814,0.,-0.00009974,0.,
 0.,0.00009340,0.,0.,-0.00009974,0.,0.,0.00009340,0.01406606,0.,0.,-0.0
 0061008,0.,0.,-0.01345598,0.,-0.05229022,0.,0.,0.00000633,0.,0.,0.0522
 8389,0.,0.,-0.05229022,0.,0.,0.00000633,0.,0.,0.05228389\\-0.12791567,
 0.,0.,-0.00049500,0.,0.,0.12841067,0.,0.\\\@
 The archive entry for this job was punched.


 KNOWING HOW CONTENTED, FREE, AND JOYFUL IS LIFE IN
 THE REALMS OF SCIENCE, ONE FERVENTLY WISHES THAT
 MANY WOULD ENTER HER PORTALS.
   --  DMITRI IVANOVICH MENDELEEV
 "FIRST PRINCIPLES OF CHEMISTRY", LONGMANS, GREEN,
 AND CO.  LONDON, 1891
 Job cpu time:       0 days  0 hours  0 minutes 13.5 seconds.
 Elapsed time:       0 days  0 hours  0 minutes  1.9 seconds.
 File lengths (MBytes):  RWF=      6 Int=      0 D2E=      0 Chk=      1 Scr=      1
 Normal termination of Gaussian 16 at Fri Aug 22 16:15:40 2025.
